18
/gpfs1/home/osl/test/Naphthalene/Gaussian 16 Excited States TDA Optimised S(1) PBE1PBE (GD3BJ) Toluene 6-31G(d,p)/Output/Naphthalene.log	Energy: -241879.4084546
C          0.00000        1.24004        1.41253
C          0.00000        2.44917        0.71149
C          0.00000        2.44917       -0.71149
C          0.00000        1.24004       -1.41253
C          0.00000       -0.00000       -0.74087
C         -0.00000       -0.00000        0.74087
C         -0.00000       -1.24004        1.41253
C         -0.00000       -1.24004       -1.41253
C         -0.00000       -2.44917       -0.71149
C         -0.00000       -2.44917        0.71149
H          0.00000        1.24366        2.49924
H          0.00000        3.38988        1.25135
H          0.00000        3.38988       -1.25135
H          0.00000        1.24366       -2.49924
H         -0.00000       -1.24366        2.49924
H         -0.00000       -1.24366       -2.49924
H         -0.00000       -3.38988       -1.25135
H         -0.00000       -3.38988        1.25135
