 Entering Gaussian System, Link 0=g16
 Input=/gpfs1/home/osl/test/Pyridine/Gaussian 16 Excited States TDA 10 Singlets 10 Triplets PBE1PBE (GD3BJ) Toluene 6-31G(d,p)/Input/Pyridine.com
 Output=/gpfs1/home/osl/test/Pyridine/Gaussian 16 Excited States TDA 10 Singlets 10 Triplets PBE1PBE (GD3BJ) Toluene 6-31G(d,p)/Output/Pyridine.log
 Initial command:
 /gpfs1/apps/software/Gaussian16/AVX/g16/l1.exe "/scratch/tmp/osl/f39c8b212268446cb0c8332ec5b3a373/Gau-23510.inp" -scrdir="/scratch/tmp/osl/f39c8b212268446cb0c8332ec5b3a373/"
 Entering Link 1 = /gpfs1/apps/software/Gaussian16/AVX/g16/l1.exe PID=     23511.
  
 Copyright (c) 1988-2019, Gaussian, Inc.  All Rights Reserved.
  
 This is part of the Gaussian(R) 16 program.  It is based on
 the Gaussian(R) 09 system (copyright 2009, Gaussian, Inc.),
 the Gaussian(R) 03 system (copyright 2003, Gaussian, Inc.),
 the Gaussian(R) 98 system (copyright 1998, Gaussian, Inc.),
 the Gaussian(R) 94 system (copyright 1995, Gaussian, Inc.),
 the Gaussian 92(TM) system (copyright 1992, Gaussian, Inc.),
 the Gaussian 90(TM) system (copyright 1990, Gaussian, Inc.),
 the Gaussian 88(TM) system (copyright 1988, Gaussian, Inc.),
 the Gaussian 86(TM) system (copyright 1986, Carnegie Mellon
 University), and the Gaussian 82(TM) system (copyright 1983,
 Carnegie Mellon University). Gaussian is a federally registered
 trademark of Gaussian, Inc.
  
 This software contains proprietary and confidential information,
 including trade secrets, belonging to Gaussian, Inc.
  
 This software is provided under written license and may be
 used, copied, transmitted, or stored only in accord with that
 written license.
  
 The following legend is applicable only to US Government
 contracts under FAR:
  
                    RESTRICTED RIGHTS LEGEND
  
 Use, reproduction and disclosure by the US Government is
 subject to restrictions as set forth in subparagraphs (a)
 and (c) of the Commercial Computer Software - Restricted
 Rights clause in FAR 52.227-19.
  
 Gaussian, Inc.
 340 Quinnipiac St., Bldg. 40, Wallingford CT 06492
  
  
 ---------------------------------------------------------------
 Warning -- This program may not be used in any manner that
 competes with the business of Gaussian, Inc. or will provide
 assistance to any competitor of Gaussian, Inc.  The licensee
 of this program is prohibited from giving any competitor of
 Gaussian, Inc. access to this program.  By using this program,
 the user acknowledges that Gaussian, Inc. is engaged in the
 business of creating and licensing software in the field of
 computational chemistry and represents and warrants to the
 licensee that it is not a competitor of Gaussian, Inc. and that
 it will not use this program in any manner prohibited above.
 ---------------------------------------------------------------
  

 Cite this work as:
 Gaussian 16, Revision C.01,
 M. J. Frisch, G. W. Trucks, H. B. Schlegel, G. E. Scuseria, 
 M. A. Robb, J. R. Cheeseman, G. Scalmani, V. Barone, 
 G. A. Petersson, H. Nakatsuji, X. Li, M. Caricato, A. V. Marenich, 
 J. Bloino, B. G. Janesko, R. Gomperts, B. Mennucci, H. P. Hratchian, 
 J. V. Ortiz, A. F. Izmaylov, J. L. Sonnenberg, D. Williams-Young, 
 F. Ding, F. Lipparini, F. Egidi, J. Goings, B. Peng, A. Petrone, 
 T. Henderson, D. Ranasinghe, V. G. Zakrzewski, J. Gao, N. Rega, 
 G. Zheng, W. Liang, M. Hada, M. Ehara, K. Toyota, R. Fukuda, 
 J. Hasegawa, M. Ishida, T. Nakajima, Y. Honda, O. Kitao, H. Nakai, 
 T. Vreven, K. Throssell, J. A. Montgomery, Jr., J. E. Peralta, 
 F. Ogliaro, M. J. Bearpark, J. J. Heyd, E. N. Brothers, K. N. Kudin, 
 V. N. Staroverov, T. A. Keith, R. Kobayashi, J. Normand, 
 K. Raghavachari, A. P. Rendell, J. C. Burant, S. S. Iyengar, 
 J. Tomasi, M. Cossi, J. M. Millam, M. Klene, C. Adamo, R. Cammi, 
 J. W. Ochterski, R. L. Martin, K. Morokuma, O. Farkas, 
 J. B. Foresman, and D. J. Fox, Gaussian, Inc., Wallingford CT, 2019.
 
 ******************************************
 Gaussian 16:  ES64L-G16RevC.01  3-Jul-2019
                15-Jun-2022 
 ******************************************
 %Chk="Pyridine.chk"
 %Rwf="Pyridine.rwf"
 %NProcShared=4
 Will use up to    4 processors via shared memory.
 %Mem=10GB
 ----------------------------------------------------------------------
 #p TDA=(50-50, nstates=10) PBE1PBE/6-31G(d,p) SCRF=(Solvent=Toluene) E
 mpiricalDispersion=(GD3BJ) Symmetry=(Tight) Population=(Regular) Densi
 ty=(Current) 6D 10F GFInput
 ----------------------------------------------------------------------
 1/30=1,38=1,172=1/1;
 2/12=2,40=1/2;
 3/5=1,6=6,7=101,8=22,11=9,24=10,25=1,30=1,70=2201,71=1,72=13,74=-13,124=41/1,2,3,8;
 4//1;
 5/5=2,38=5,53=13/2;
 8/6=1,10=2,108=10/1;
 9/15=1,41=10,42=1,48=2/14;
 10/5=4,13=10/2;
 6/22=-1/1;
 99/5=1,9=1/99;
 Leave Link    1 at Wed Jun 15 23:29:39 2022, MaxMem=  1342177280 cpu:               0.3 elap:               0.1
 (Enter /gpfs1/apps/software/Gaussian16/AVX/g16/l101.exe)
 ----------------------------------------------------------------------
 Pyridine_Excited_States_TDA_10_Singlets_10_Triplets_PBE1PBE__GD3BJ__To
 luene_6_31G_d_p_
 ----------------------------------------------------------------------
 Symbolic Z-matrix:
 Charge =  0 Multiplicity = 1
 C                    -1.13866  -0.71995   0.00002 
 C                    -1.1954    0.67093  -0.00002 
 C                    -0.00003   1.38179  -0.00002 
 C                     1.19537   0.67097  -0.00002 
 C                     1.13869  -0.71991  -0.00003 
 N                     0.00002  -1.41721   0.00006 
 H                    -2.05707  -1.30463   0.00004 
 H                    -2.15405   1.17942  -0.00004 
 H                    -0.00004   2.46782  -0.00005 
 H                     2.154     1.17951  -0.00002 
 H                     2.05711  -1.30456   0.00004 
 
 ITRead=  0  0  0  0  0  0  0  0  0  0  0
 MicOpt= -1 -1 -1 -1 -1 -1 -1 -1 -1 -1 -1
 NAtoms=     11 NQM=       11 NQMF=       0 NMMI=      0 NMMIF=      0
                NMic=       0 NMicF=      0.
                    Isotopes and Nuclear Properties:
 (Nuclear quadrupole moments (NQMom) in fm**2, nuclear magnetic moments (NMagM)
  in nuclear magnetons)

  Atom         1           2           3           4           5           6           7           8           9          10
 IAtWgt=          12          12          12          12          12          14           1           1           1           1
 AtmWgt=  12.0000000  12.0000000  12.0000000  12.0000000  12.0000000  14.0030740   1.0078250   1.0078250   1.0078250   1.0078250
 NucSpn=           0           0           0           0           0           2           1           1           1           1
 AtZEff=  -0.0000000  -0.0000000  -0.0000000  -0.0000000  -0.0000000  -0.0000000  -0.0000000  -0.0000000  -0.0000000  -0.0000000
 NQMom=    0.0000000   0.0000000   0.0000000   0.0000000   0.0000000   2.0440000   0.0000000   0.0000000   0.0000000   0.0000000
 NMagM=    0.0000000   0.0000000   0.0000000   0.0000000   0.0000000   0.4037610   2.7928460   2.7928460   2.7928460   2.7928460
 AtZNuc=   6.0000000   6.0000000   6.0000000   6.0000000   6.0000000   7.0000000   1.0000000   1.0000000   1.0000000   1.0000000

  Atom        11
 IAtWgt=           1
 AtmWgt=   1.0078250
 NucSpn=           1
 AtZEff=  -0.0000000
 NQMom=    0.0000000
 NMagM=    2.7928460
 AtZNuc=   1.0000000
 Leave Link  101 at Wed Jun 15 23:29:40 2022, MaxMem=  1342177280 cpu:               0.8 elap:               0.2
 (Enter /gpfs1/apps/software/Gaussian16/AVX/g16/l202.exe)
                          Input orientation:                          
 ---------------------------------------------------------------------
 Center     Atomic      Atomic             Coordinates (Angstroms)
 Number     Number       Type             X           Y           Z
 ---------------------------------------------------------------------
      1          6           0       -1.138660   -0.719950    0.000020
      2          6           0       -1.195400    0.670930   -0.000020
      3          6           0       -0.000030    1.381790   -0.000020
      4          6           0        1.195370    0.670970   -0.000020
      5          6           0        1.138690   -0.719910   -0.000030
      6          7           0        0.000020   -1.417210    0.000060
      7          1           0       -2.057070   -1.304630    0.000040
      8          1           0       -2.154050    1.179420   -0.000040
      9          1           0       -0.000040    2.467820   -0.000050
     10          1           0        2.154000    1.179510   -0.000020
     11          1           0        2.057110   -1.304560    0.000040
 ---------------------------------------------------------------------
                    Distance matrix (angstroms):
                    1          2          3          4          5
     1  C    0.000000
     2  C    1.392037   0.000000
     3  C    2.390353   1.390766   0.000000
     4  C    2.717049   2.390770   1.390772   0.000000
     5  C    2.277350   2.717059   2.390361   1.392034   0.000000
     6  N    1.335202   2.406108   2.799000   2.406108   1.335214
     7  H    1.088728   2.155299   3.383529   3.805438   3.248812
     8  H    2.153746   1.085160   2.163505   3.387792   3.801262
     9  H    3.385016   2.158170   1.086030   2.158165   3.385015
    10  H    3.801257   3.387792   2.163507   1.085166   2.153753
    11  H    3.248802   3.805441   3.383534   2.155299   1.088720
                    6          7          8          9         10
     6  N    0.000000
     7  H    2.060168   0.000000
     8  H    3.373797   2.485942   0.000000
     9  H    3.885030   4.296830   2.509927   0.000000
    10  H    3.373809   4.889178   4.308050   2.509907   0.000000
    11  H    2.060172   4.114180   4.889174   4.296826   2.485959
                   11
    11  H    0.000000
 Stoichiometry    C5H5N
 Framework group  C1[X(C5H5N)]
 Deg. of freedom    27
 Full point group                 C1      NOp   1
 Largest Abelian subgroup         C1      NOp   1
 Largest concise Abelian subgroup C1      NOp   1
                         Standard orientation:                         
 ---------------------------------------------------------------------
 Center     Atomic      Atomic             Coordinates (Angstroms)
 Number     Number       Type             X           Y           Z
 ---------------------------------------------------------------------
      1          6           0        1.138651   -0.719962   -0.000021
      2          6           0        1.195404    0.670918    0.000019
      3          6           0        0.000040    1.381788    0.000019
      4          6           0       -1.195366    0.670979    0.000019
      5          6           0       -1.138699   -0.719901    0.000029
      6          7           0       -0.000035   -1.417212   -0.000061
      7          1           0        2.057056   -1.304650   -0.000041
      8          1           0        2.154058    1.179399    0.000039
      9          1           0        0.000060    2.467818    0.000049
     10          1           0       -2.153992    1.179528    0.000019
     11          1           0       -2.057124   -1.304543   -0.000041
 ---------------------------------------------------------------------
 Rotational constants (GHZ):           6.0673864           5.8363675           2.9748176
 Leave Link  202 at Wed Jun 15 23:29:40 2022, MaxMem=  1342177280 cpu:               0.0 elap:               0.0
 (Enter /gpfs1/apps/software/Gaussian16/AVX/g16/l301.exe)
 Standard basis: 6-31G(d,p) (6D, 10F)
 Ernie: Thresh=  0.10000D-02 Tol=  0.10000D-05 Strict=F.
 AO basis set in the form of general basis input (Overlap normalization):
      1 0
 S   6 1.00       0.000000000000
      0.3047524880D+04  0.1834737132D-02
      0.4573695180D+03  0.1403732281D-01
      0.1039486850D+03  0.6884262226D-01
      0.2921015530D+02  0.2321844432D+00
      0.9286662960D+01  0.4679413484D+00
      0.3163926960D+01  0.3623119853D+00
 SP   3 1.00       0.000000000000
      0.7868272350D+01 -0.1193324198D+00  0.6899906659D-01
      0.1881288540D+01 -0.1608541517D+00  0.3164239610D+00
      0.5442492580D+00  0.1143456438D+01  0.7443082909D+00
 SP   1 1.00       0.000000000000
      0.1687144782D+00  0.1000000000D+01  0.1000000000D+01
 D   1 1.00       0.000000000000
      0.8000000000D+00  0.1000000000D+01
 ****
      2 0
 S   6 1.00       0.000000000000
      0.3047524880D+04  0.1834737132D-02
      0.4573695180D+03  0.1403732281D-01
      0.1039486850D+03  0.6884262226D-01
      0.2921015530D+02  0.2321844432D+00
      0.9286662960D+01  0.4679413484D+00
      0.3163926960D+01  0.3623119853D+00
 SP   3 1.00       0.000000000000
      0.7868272350D+01 -0.1193324198D+00  0.6899906659D-01
      0.1881288540D+01 -0.1608541517D+00  0.3164239610D+00
      0.5442492580D+00  0.1143456438D+01  0.7443082909D+00
 SP   1 1.00       0.000000000000
      0.1687144782D+00  0.1000000000D+01  0.1000000000D+01
 D   1 1.00       0.000000000000
      0.8000000000D+00  0.1000000000D+01
 ****
      3 0
 S   6 1.00       0.000000000000
      0.3047524880D+04  0.1834737132D-02
      0.4573695180D+03  0.1403732281D-01
      0.1039486850D+03  0.6884262226D-01
      0.2921015530D+02  0.2321844432D+00
      0.9286662960D+01  0.4679413484D+00
      0.3163926960D+01  0.3623119853D+00
 SP   3 1.00       0.000000000000
      0.7868272350D+01 -0.1193324198D+00  0.6899906659D-01
      0.1881288540D+01 -0.1608541517D+00  0.3164239610D+00
      0.5442492580D+00  0.1143456438D+01  0.7443082909D+00
 SP   1 1.00       0.000000000000
      0.1687144782D+00  0.1000000000D+01  0.1000000000D+01
 D   1 1.00       0.000000000000
      0.8000000000D+00  0.1000000000D+01
 ****
      4 0
 S   6 1.00       0.000000000000
      0.3047524880D+04  0.1834737132D-02
      0.4573695180D+03  0.1403732281D-01
      0.1039486850D+03  0.6884262226D-01
      0.2921015530D+02  0.2321844432D+00
      0.9286662960D+01  0.4679413484D+00
      0.3163926960D+01  0.3623119853D+00
 SP   3 1.00       0.000000000000
      0.7868272350D+01 -0.1193324198D+00  0.6899906659D-01
      0.1881288540D+01 -0.1608541517D+00  0.3164239610D+00
      0.5442492580D+00  0.1143456438D+01  0.7443082909D+00
 SP   1 1.00       0.000000000000
      0.1687144782D+00  0.1000000000D+01  0.1000000000D+01
 D   1 1.00       0.000000000000
      0.8000000000D+00  0.1000000000D+01
 ****
      5 0
 S   6 1.00       0.000000000000
      0.3047524880D+04  0.1834737132D-02
      0.4573695180D+03  0.1403732281D-01
      0.1039486850D+03  0.6884262226D-01
      0.2921015530D+02  0.2321844432D+00
      0.9286662960D+01  0.4679413484D+00
      0.3163926960D+01  0.3623119853D+00
 SP   3 1.00       0.000000000000
      0.7868272350D+01 -0.1193324198D+00  0.6899906659D-01
      0.1881288540D+01 -0.1608541517D+00  0.3164239610D+00
      0.5442492580D+00  0.1143456438D+01  0.7443082909D+00
 SP   1 1.00       0.000000000000
      0.1687144782D+00  0.1000000000D+01  0.1000000000D+01
 D   1 1.00       0.000000000000
      0.8000000000D+00  0.1000000000D+01
 ****
      6 0
 S   6 1.00       0.000000000000
      0.4173511460D+04  0.1834772160D-02
      0.6274579110D+03  0.1399462700D-01
      0.1429020930D+03  0.6858655181D-01
      0.4023432930D+02  0.2322408730D+00
      0.1282021290D+02  0.4690699481D+00
      0.4390437010D+01  0.3604551991D+00
 SP   3 1.00       0.000000000000
      0.1162636186D+02 -0.1149611817D+00  0.6757974388D-01
      0.2716279807D+01 -0.1691174786D+00  0.3239072959D+00
      0.7722183966D+00  0.1145851947D+01  0.7408951398D+00
 SP   1 1.00       0.000000000000
      0.2120314975D+00  0.1000000000D+01  0.1000000000D+01
 D   1 1.00       0.000000000000
      0.8000000000D+00  0.1000000000D+01
 ****
      7 0
 S   3 1.00       0.000000000000
      0.1873113696D+02  0.3349460434D-01
      0.2825394365D+01  0.2347269535D+00
      0.6401216923D+00  0.8137573261D+00
 S   1 1.00       0.000000000000
      0.1612777588D+00  0.1000000000D+01
 P   1 1.00       0.000000000000
      0.1100000000D+01  0.1000000000D+01
 ****
      8 0
 S   3 1.00       0.000000000000
      0.1873113696D+02  0.3349460434D-01
      0.2825394365D+01  0.2347269535D+00
      0.6401216923D+00  0.8137573261D+00
 S   1 1.00       0.000000000000
      0.1612777588D+00  0.1000000000D+01
 P   1 1.00       0.000000000000
      0.1100000000D+01  0.1000000000D+01
 ****
      9 0
 S   3 1.00       0.000000000000
      0.1873113696D+02  0.3349460434D-01
      0.2825394365D+01  0.2347269535D+00
      0.6401216923D+00  0.8137573261D+00
 S   1 1.00       0.000000000000
      0.1612777588D+00  0.1000000000D+01
 P   1 1.00       0.000000000000
      0.1100000000D+01  0.1000000000D+01
 ****
     10 0
 S   3 1.00       0.000000000000
      0.1873113696D+02  0.3349460434D-01
      0.2825394365D+01  0.2347269535D+00
      0.6401216923D+00  0.8137573261D+00
 S   1 1.00       0.000000000000
      0.1612777588D+00  0.1000000000D+01
 P   1 1.00       0.000000000000
      0.1100000000D+01  0.1000000000D+01
 ****
     11 0
 S   3 1.00       0.000000000000
      0.1873113696D+02  0.3349460434D-01
      0.2825394365D+01  0.2347269535D+00
      0.6401216923D+00  0.8137573261D+00
 S   1 1.00       0.000000000000
      0.1612777588D+00  0.1000000000D+01
 P   1 1.00       0.000000000000
      0.1100000000D+01  0.1000000000D+01
 ****

 There are   115 symmetry adapted cartesian basis functions of A   symmetry.
 There are   115 symmetry adapted basis functions of A   symmetry.
   115 basis functions,   203 primitive gaussians,   115 cartesian basis functions
    21 alpha electrons       21 beta electrons
       nuclear repulsion energy       206.3758043582 Hartrees.
 IExCor= 1009 DFT=T Ex+Corr=PBE1PBE ExCW=0 ScaHFX=  0.250000
 ScaDFX=  0.750000  0.750000  1.000000  1.000000 ScalE2=  1.000000  1.000000
 IRadAn=      5 IRanWt=     -1 IRanGd=            0 ICorTp=0 IEmpDi=141
 NAtoms=   11 NActive=   11 NUniq=   11 SFac= 1.00D+00 NAtFMM=   60 NAOKFM=F Big=F
 Integral buffers will be    131072 words long.
 Regular integral format.
 Two-electron integral symmetry is turned on.
 R6Disp:  Grimme-D3(BJ) Dispersion energy=       -0.0084535306 Hartrees.
 Nuclear repulsion after empirical dispersion term =      206.3673508276 Hartrees.
 ------------------------------------------------------------------------------
 Polarizable Continuum Model (PCM)
 =================================
 Model                : PCM.
 Atomic radii         : UFF (Universal Force Field).
 Polarization charges : Total charges.
 Charge compensation  : None.
 Solution method      : On-the-fly selection.
 Cavity type          : Scaled VdW (van der Waals Surface) (Alpha=1.100).
 Cavity algorithm     : GePol (No added spheres)
                        Default sphere list used, NSphG=   11.
                        Lebedev-Laikov grids with approx.  5.0 points / Ang**2.
                        Smoothing algorithm: York/Karplus (Gamma=1.0000).
                        Polarization charges: spherical gaussians, with
                                              point-specific exponents (IZeta= 3).
                        Self-potential: point-specific (ISelfS= 7).
                        Self-field    : sphere-specific E.n sum rule (ISelfD= 2).
 1st derivatives      : Analytical E(r).r(x)/FMM algorithm (CHGder, D1EAlg=3).
                        Cavity 1st derivative terms included.
 Solvent              : Toluene, Eps=   2.374100 Eps(inf)=   2.238315
 ------------------------------------------------------------------------------
 Spheres list:
 ISph  on   Nord     Re0    Alpha      Xe            Ye            Ze
    1   C      1    1.9255  1.100      1.138651     -0.719962     -0.000021
    2   C      2    1.9255  1.100      1.195404      0.670918      0.000019
    3   C      3    1.9255  1.100      0.000040      1.381788      0.000019
    4   C      4    1.9255  1.100     -1.195366      0.670979      0.000019
    5   C      5    1.9255  1.100     -1.138699     -0.719901      0.000029
    6   N      6    1.8300  1.100     -0.000035     -1.417212     -0.000061
    7   H      7    1.4430  1.100      2.057056     -1.304650     -0.000041
    8   H      8    1.4430  1.100      2.154058      1.179399      0.000039
    9   H      9    1.4430  1.100      0.000060      2.467818      0.000049
   10   H     10    1.4430  1.100     -2.153992      1.179528      0.000019
   11   H     11    1.4430  1.100     -2.057124     -1.304543     -0.000041
 ------------------------------------------------------------------------------
 GePol: Number of generator spheres                  =      11
 GePol: Total number of spheres                      =      11
 GePol: Number of exposed spheres                    =      11 (100.00%)
 GePol: Number of points                             =    1032
 GePol: Average weight of points                     =       0.13
 GePol: Minimum weight of points                     =   0.21D-07
 GePol: Maximum weight of points                     =    0.20577
 GePol: Number of points with low weight             =      58
 GePol: Fraction of low-weight points (<1% of avg)   =       5.62%
 GePol: Cavity surface area                          =    136.782 Ang**2
 GePol: Cavity volume                                =    127.757 Ang**3
 Leave Link  301 at Wed Jun 15 23:29:40 2022, MaxMem=  1342177280 cpu:               0.2 elap:               0.1
 (Enter /gpfs1/apps/software/Gaussian16/AVX/g16/l302.exe)
 NPDir=0 NMtPBC=     1 NCelOv=     1 NCel=       1 NClECP=     1 NCelD=      1
         NCelK=      1 NCelE2=     1 NClLst=     1 CellRange=     0.0.
 One-electron integrals computed using PRISM.
 One-electron integral symmetry used in STVInt
 NBasis=   115 RedAO= T EigKep=  8.49D-04  NBF=   115
 NBsUse=   115 1.00D-06 EigRej= -1.00D+00 NBFU=   115
 Precomputing XC quadrature grid using
 IXCGrd= 4 IRadAn=           5 IRanWt=          -1 IRanGd=           0 AccXCQ= 0.00D+00.
 Generated NRdTot=       0 NPtTot=           0 NUsed=           0 NTot=          32
 NSgBfM=   115   115   115   115   115 MxSgAt=    11 MxSgA2=    11.
 Leave Link  302 at Wed Jun 15 23:29:40 2022, MaxMem=  1342177280 cpu:               0.8 elap:               0.2
 (Enter /gpfs1/apps/software/Gaussian16/AVX/g16/l303.exe)
 DipDrv:  MaxL=1.
 Leave Link  303 at Wed Jun 15 23:29:41 2022, MaxMem=  1342177280 cpu:               0.2 elap:               0.0
 (Enter /gpfs1/apps/software/Gaussian16/AVX/g16/l308.exe)
 Leave Link  308 at Wed Jun 15 23:29:42 2022, MaxMem=  1342177280 cpu:               0.2 elap:               0.1
 (Enter /gpfs1/apps/software/Gaussian16/AVX/g16/l401.exe)
 ExpMin= 1.61D-01 ExpMax= 4.17D+03 ExpMxC= 6.27D+02 IAcc=3 IRadAn=         5 AccDes= 0.00D+00
 Harris functional with IExCor= 1009 and IRadAn=       5 diagonalized for initial guess.
 HarFok:  IExCor= 1009 AccDes= 0.00D+00 IRadAn=         5 IDoV= 1 UseB2=F ITyADJ=14
 ICtDFT=  3500011 ScaDFX=  1.000000  1.000000  1.000000  1.000000
 FoFCou: FMM=F IPFlag=           0 FMFlag=      100000 FMFlg1=           0
         NFxFlg=           0 DoJE=T BraDBF=F KetDBF=T FulRan=T
         wScrn=  0.000000 ICntrl=       500 IOpCl=  0 I1Cent=   200000004 NGrid=           0
         NMat0=    1 NMatS0=      1 NMatT0=    0 NMatD0=    1 NMtDS0=    0 NMtDT0=    0
 Petite list used in FoFCou.
 Harris En= -248.066514675517    
 JPrj=0 DoOrth=F DoCkMO=F.
 Leave Link  401 at Wed Jun 15 23:29:43 2022, MaxMem=  1342177280 cpu:               3.3 elap:               0.8
 (Enter /gpfs1/apps/software/Gaussian16/AVX/g16/l502.exe)
 Keep R1 ints in memory in canonical form, NReq=26005709.
 FoFCou: FMM=F IPFlag=           0 FMFlag=           0 FMFlg1=           0
         NFxFlg=           0 DoJE=F BraDBF=F KetDBF=F FulRan=T
         wScrn=  0.000000 ICntrl=       600 IOpCl=  0 I1Cent=           0 NGrid=           0
         NMat0=    1 NMatS0=   6670 NMatT0=    0 NMatD0=    1 NMtDS0=    0 NMtDT0=    0
 Symmetry not used in FoFCou.
 Two-electron integral symmetry not used.
 Closed shell SCF:
 Using DIIS extrapolation, IDIIS=  1040.
 NGot=  1342177280 LenX=  1319900773 LenY=  1319887107
 Requested convergence on RMS density matrix=1.00D-08 within 128 cycles.
 Requested convergence on MAX density matrix=1.00D-06.
 Requested convergence on             energy=1.00D-06.
 No special actions if energy rises.

 Cycle   1  Pass 1  IDiag  1:
 Inv3:  Mode=1 IEnd=     3195072.
 Iteration    1 A*A^-1 deviation from unit magnitude is 2.89D-15 for    459.
 Iteration    1 A*A^-1 deviation from orthogonality  is 2.07D-15 for    678    219.
 Iteration    1 A^-1*A deviation from unit magnitude is 2.44D-15 for   1006.
 Iteration    1 A^-1*A deviation from orthogonality  is 1.60D-15 for    961    110.
 E= -247.906740871230    
 DIIS: error= 4.00D-02 at cycle   1 NSaved=   1.
 NSaved= 1 IEnMin= 1 EnMin= -247.906740871230     IErMin= 1 ErrMin= 4.00D-02
 ErrMax= 4.00D-02  0.00D+00 EMaxC= 1.00D-01 BMatC= 9.60D-02 BMatP= 9.60D-02
 IDIUse=3 WtCom= 6.00D-01 WtEn= 4.00D-01
 Coeff-Com:  0.100D+01
 Coeff-En:   0.100D+01
 Coeff:      0.100D+01
 Gap=     0.262 Goal=   None    Shift=    0.000
 GapD=    0.262 DampG=1.000 DampE=0.500 DampFc=0.5000 IDamp=-1.
 Damping current iteration by 5.00D-01
 RMSDP=5.72D-03 MaxDP=9.14D-02              OVMax= 1.28D-01

 Cycle   2  Pass 1  IDiag  1:
 E= -247.957517903430     Delta-E=       -0.050777032199 Rises=F Damp=T
 DIIS: error= 9.00D-03 at cycle   2 NSaved=   2.
 NSaved= 2 IEnMin= 2 EnMin= -247.957517903430     IErMin= 2 ErrMin= 9.00D-03
 ErrMax= 9.00D-03  0.00D+00 EMaxC= 1.00D-01 BMatC= 7.63D-03 BMatP= 9.60D-02
 IDIUse=3 WtCom= 9.10D-01 WtEn= 9.00D-02
 Coeff-Com: -0.950D-01 0.110D+01
 Coeff-En:   0.000D+00 0.100D+01
 Coeff:     -0.865D-01 0.109D+01
 Gap=     0.245 Goal=   None    Shift=    0.000
 RMSDP=1.35D-03 MaxDP=1.51D-02 DE=-5.08D-02 OVMax= 8.49D-02

 Cycle   3  Pass 1  IDiag  1:
 E= -248.004632588311     Delta-E=       -0.047114684881 Rises=F Damp=F
 DIIS: error= 5.53D-03 at cycle   3 NSaved=   3.
 NSaved= 3 IEnMin= 3 EnMin= -248.004632588311     IErMin= 3 ErrMin= 5.53D-03
 ErrMax= 5.53D-03  0.00D+00 EMaxC= 1.00D-01 BMatC= 2.20D-03 BMatP= 7.63D-03
 IDIUse=3 WtCom= 9.45D-01 WtEn= 5.53D-02
 Coeff-Com: -0.842D-01 0.374D+00 0.710D+00
 Coeff-En:   0.000D+00 0.000D+00 0.100D+01
 Coeff:     -0.796D-01 0.353D+00 0.726D+00
 Gap=     0.255 Goal=   None    Shift=    0.000
 RMSDP=6.46D-04 MaxDP=1.04D-02 DE=-4.71D-02 OVMax= 3.81D-02

 Cycle   4  Pass 1  IDiag  1:
 E= -248.005779710278     Delta-E=       -0.001147121967 Rises=F Damp=F
 DIIS: error= 4.18D-03 at cycle   4 NSaved=   4.
 NSaved= 4 IEnMin= 4 EnMin= -248.005779710278     IErMin= 4 ErrMin= 4.18D-03
 ErrMax= 4.18D-03  0.00D+00 EMaxC= 1.00D-01 BMatC= 1.06D-03 BMatP= 2.20D-03
 IDIUse=3 WtCom= 9.58D-01 WtEn= 4.18D-02
 Coeff-Com: -0.381D-01 0.119D+00 0.440D+00 0.479D+00
 Coeff-En:   0.000D+00 0.000D+00 0.349D+00 0.651D+00
 Coeff:     -0.365D-01 0.114D+00 0.436D+00 0.487D+00
 Gap=     0.248 Goal=   None    Shift=    0.000
 RMSDP=3.30D-04 MaxDP=6.13D-03 DE=-1.15D-03 OVMax= 1.66D-02

 Cycle   5  Pass 1  IDiag  1:
 E= -248.006920700160     Delta-E=       -0.001140989882 Rises=F Damp=F
 DIIS: error= 8.42D-04 at cycle   5 NSaved=   5.
 NSaved= 5 IEnMin= 5 EnMin= -248.006920700160     IErMin= 5 ErrMin= 8.42D-04
 ErrMax= 8.42D-04  0.00D+00 EMaxC= 1.00D-01 BMatC= 4.24D-05 BMatP= 1.06D-03
 IDIUse=3 WtCom= 9.92D-01 WtEn= 8.42D-03
 Coeff-Com: -0.110D-01 0.264D-01 0.153D+00 0.236D+00 0.595D+00
 Coeff-En:   0.000D+00 0.000D+00 0.000D+00 0.000D+00 0.100D+01
 Coeff:     -0.110D-01 0.262D-01 0.152D+00 0.234D+00 0.599D+00
 Gap=     0.249 Goal=   None    Shift=    0.000
 RMSDP=6.27D-05 MaxDP=1.91D-03 DE=-1.14D-03 OVMax= 3.30D-03

 Cycle   6  Pass 1  IDiag  1:
 E= -248.006955433647     Delta-E=       -0.000034733487 Rises=F Damp=F
 DIIS: error= 2.59D-04 at cycle   6 NSaved=   6.
 NSaved= 6 IEnMin= 6 EnMin= -248.006955433647     IErMin= 6 ErrMin= 2.59D-04
 ErrMax= 2.59D-04  0.00D+00 EMaxC= 1.00D-01 BMatC= 5.55D-06 BMatP= 4.24D-05
 IDIUse=3 WtCom= 9.97D-01 WtEn= 2.59D-03
 Coeff-Com: -0.430D-02 0.845D-02 0.627D-01 0.108D+00 0.350D+00 0.474D+00
 Coeff-En:   0.000D+00 0.000D+00 0.000D+00 0.000D+00 0.229D-01 0.977D+00
 Coeff:     -0.429D-02 0.843D-02 0.625D-01 0.108D+00 0.350D+00 0.476D+00
 Gap=     0.249 Goal=   None    Shift=    0.000
 RMSDP=1.62D-05 MaxDP=5.36D-04 DE=-3.47D-05 OVMax= 6.63D-04

 Cycle   7  Pass 1  IDiag  1:
 E= -248.006960083401     Delta-E=       -0.000004649754 Rises=F Damp=F
 DIIS: error= 1.34D-05 at cycle   7 NSaved=   7.
 NSaved= 7 IEnMin= 7 EnMin= -248.006960083401     IErMin= 7 ErrMin= 1.34D-05
 ErrMax= 1.34D-05  0.00D+00 EMaxC= 1.00D-01 BMatC= 1.83D-08 BMatP= 5.55D-06
 IDIUse=1 WtCom= 1.00D+00 WtEn= 0.00D+00
 Coeff-Com: -0.291D-03 0.385D-03 0.457D-02 0.788D-02 0.316D-01 0.800D-01
 Coeff-Com:  0.876D+00
 Coeff:     -0.291D-03 0.385D-03 0.457D-02 0.788D-02 0.316D-01 0.800D-01
 Coeff:      0.876D+00
 Gap=     0.249 Goal=   None    Shift=    0.000
 RMSDP=1.71D-06 MaxDP=3.67D-05 DE=-4.65D-06 OVMax= 6.39D-05

 Cycle   8  Pass 1  IDiag  1:
 E= -248.006960093821     Delta-E=       -0.000000010419 Rises=F Damp=F
 DIIS: error= 9.37D-06 at cycle   8 NSaved=   8.
 NSaved= 8 IEnMin= 8 EnMin= -248.006960093821     IErMin= 8 ErrMin= 9.37D-06
 ErrMax= 9.37D-06  0.00D+00 EMaxC= 1.00D-01 BMatC= 7.60D-09 BMatP= 1.83D-08
 IDIUse=1 WtCom= 1.00D+00 WtEn= 0.00D+00
 Coeff-Com:  0.932D-04-0.293D-03-0.115D-02-0.203D-02-0.304D-02 0.185D-01
 Coeff-Com:  0.493D+00 0.495D+00
 Coeff:      0.932D-04-0.293D-03-0.115D-02-0.203D-02-0.304D-02 0.185D-01
 Coeff:      0.493D+00 0.495D+00
 Gap=     0.249 Goal=   None    Shift=    0.000
 RMSDP=6.25D-07 MaxDP=2.07D-05 DE=-1.04D-08 OVMax= 3.16D-05

 Cycle   9  Pass 1  IDiag  1:
 E= -248.006960100912     Delta-E=       -0.000000007091 Rises=F Damp=F
 DIIS: error= 6.10D-07 at cycle   9 NSaved=   9.
 NSaved= 9 IEnMin= 9 EnMin= -248.006960100912     IErMin= 9 ErrMin= 6.10D-07
 ErrMax= 6.10D-07  0.00D+00 EMaxC= 1.00D-01 BMatC= 3.19D-11 BMatP= 7.60D-09
 IDIUse=1 WtCom= 1.00D+00 WtEn= 0.00D+00
 Coeff-Com:  0.268D-04-0.535D-04-0.380D-03-0.708D-03-0.229D-02-0.121D-02
 Coeff-Com:  0.883D-02 0.502D-01 0.946D+00
 Coeff:      0.268D-04-0.535D-04-0.380D-03-0.708D-03-0.229D-02-0.121D-02
 Coeff:      0.883D-02 0.502D-01 0.946D+00
 Gap=     0.249 Goal=   None    Shift=    0.000
 RMSDP=7.12D-08 MaxDP=1.35D-06 DE=-7.09D-09 OVMax= 3.11D-06

 Cycle  10  Pass 1  IDiag  1:
 E= -248.006960100952     Delta-E=       -0.000000000040 Rises=F Damp=F
 DIIS: error= 1.40D-07 at cycle  10 NSaved=  10.
 NSaved=10 IEnMin=10 EnMin= -248.006960100952     IErMin=10 ErrMin= 1.40D-07
 ErrMax= 1.40D-07  0.00D+00 EMaxC= 1.00D-01 BMatC= 2.22D-12 BMatP= 3.19D-11
 IDIUse=1 WtCom= 1.00D+00 WtEn= 0.00D+00
 Coeff-Com:  0.626D-06 0.451D-06 0.521D-05-0.107D-04-0.110D-03 0.709D-04
 Coeff-Com: -0.642D-02-0.101D-01 0.465D-01 0.970D+00
 Coeff:      0.626D-06 0.451D-06 0.521D-05-0.107D-04-0.110D-03 0.709D-04
 Coeff:     -0.642D-02-0.101D-01 0.465D-01 0.970D+00
 Gap=     0.249 Goal=   None    Shift=    0.000
 RMSDP=1.36D-08 MaxDP=2.13D-07 DE=-4.00D-11 OVMax= 3.32D-07

 Cycle  11  Pass 1  IDiag  1:
 E= -248.006960100954     Delta-E=       -0.000000000002 Rises=F Damp=F
 DIIS: error= 2.34D-08 at cycle  11 NSaved=  11.
 NSaved=11 IEnMin=11 EnMin= -248.006960100954     IErMin=11 ErrMin= 2.34D-08
 ErrMax= 2.34D-08  0.00D+00 EMaxC= 1.00D-01 BMatC= 8.69D-14 BMatP= 2.22D-12
 IDIUse=1 WtCom= 1.00D+00 WtEn= 0.00D+00
 Coeff-Com: -0.871D-06 0.185D-05 0.156D-04 0.261D-04 0.647D-04 0.129D-03
 Coeff-Com: -0.676D-03-0.360D-02-0.293D-01 0.634D-01 0.970D+00
 Coeff:     -0.871D-06 0.185D-05 0.156D-04 0.261D-04 0.647D-04 0.129D-03
 Coeff:     -0.676D-03-0.360D-02-0.293D-01 0.634D-01 0.970D+00
 Gap=     0.249 Goal=   None    Shift=    0.000
 RMSDP=2.87D-09 MaxDP=4.98D-08 DE=-1.71D-12 OVMax= 1.04D-07

 Error on total polarization charges =  0.00415
 SCF Done:  E(RPBE1PBE) =  -248.006960101     A.U. after   11 cycles
            NFock= 11  Conv=0.29D-08     -V/T= 2.0089
 KE= 2.458280169912D+02 PE=-9.882210382947D+02 EE= 2.880187103749D+02
 Leave Link  502 at Wed Jun 15 23:29:57 2022, MaxMem=  1342177280 cpu:              51.8 elap:              13.3
 (Enter /gpfs1/apps/software/Gaussian16/AVX/g16/l801.exe)
 DoSCS=F DFT=T ScalE2(SS,OS)=  1.000000  1.000000
 ExpMin= 1.61D-01 ExpMax= 4.17D+03 ExpMxC= 6.27D+02 IAcc=3 IRadAn=         5 AccDes= 0.00D+00
 HarFok:  IExCor=  205 AccDes= 0.00D+00 IRadAn=         5 IDoV=-2 UseB2=F ITyADJ=14
 ICtDFT= 12500011 ScaDFX=  1.000000  1.000000  1.000000  1.000000
 Largest valence mixing into a core orbital is  6.87D-05
 Largest core mixing into a valence orbital is  1.48D-05
 Range of M.O.s used for correlation:     7   115
 NBasis=   115 NAE=    21 NBE=    21 NFC=     6 NFV=     0
 NROrb=    109 NOA=    15 NOB=    15 NVA=    94 NVB=    94
 Leave Link  801 at Wed Jun 15 23:29:57 2022, MaxMem=  1342177280 cpu:               1.1 elap:               0.4
 (Enter /gpfs1/apps/software/Gaussian16/AVX/g16/l914.exe)
 RHF ground state
 Keep R1, R2, and R3 ints in memory in canonical form, NReq=93220655.
 FoFCou: FMM=F IPFlag=           0 FMFlag=           0 FMFlg1=           0
         NFxFlg=           0 DoJE=F BraDBF=F KetDBF=F FulRan=T
         wScrn=  0.000000 ICntrl=       600 IOpCl=  0 I1Cent=           0 NGrid=           0
         NMat0=    1 NMatS0=   6670 NMatT0=    0 NMatD0=    1 NMtDS0=    0 NMtDT0=    0
 Symmetry not used in FoFCou.
 Two-electron integral symmetry not used.
 MDV=  1342177280 DFT=T DoStab=F Mixed=T DoRPA=F DoScal=F NonHer=F
 NEqPCM:  Using equilibrium solvation (IEInf=0, Eps=   2.3741, EpsInf=   2.2383)
 Making orbital integer symmetry assigments:
 Orbital symmetries:
       Occupied  (A) (A) (A) (A) (A) (A) (A) (A) (A) (A) (A) (A)
                 (A) (A) (A) (A) (A) (A) (A) (A) (A)
       Virtual   (A) (A) (A) (A) (A) (A) (A) (A) (A) (A) (A) (A)
                 (A) (A) (A) (A) (A) (A) (A) (A) (A) (A) (A) (A)
                 (A) (A) (A) (A) (A) (A) (A) (A) (A) (A) (A) (A)
                 (A) (A) (A) (A) (A) (A) (A) (A) (A) (A) (A) (A)
                 (A) (A) (A) (A) (A) (A) (A) (A) (A) (A) (A) (A)
                 (A) (A) (A) (A) (A) (A) (A) (A) (A) (A) (A) (A)
                 (A) (A) (A) (A) (A) (A) (A) (A) (A) (A) (A) (A)
                 (A) (A) (A) (A) (A) (A) (A) (A) (A) (A)
    80 initial guesses have been made.
 Convergence on wavefunction:    0.000001000000000
 Davidson Disk Diagonalization:  ConvIn= 1.00D-06 SkipCon=T Conv= 1.00D-06.
 Max sub-space:  2000 roots to seek:    80 dimension of matrix:         2820
 Iteration     1 Dimension    80 NMult     0 NNew     80
 CISAX will form    80 AO SS matrices at one time.
 NMat=    80 NSing=    40 JSym2X= 0.
 New state      1 was old state      2
 New state      2 was old state      8
 New state      3 was old state      4
 New state      4 was old state     10
 New state      5 was old state      1
 New state      7 was old state      5
 New state      8 was old state     12
 New state      9 was old state      3
 New state     10 was old state      7
 New state     11 was old state     14
 New state     12 was old state     13
 New state     13 was old state     22
 New state     14 was old state     16
 New state     15 was old state     28
 New state     16 was old state     15
 New state     17 was old state     24
 New state     18 was old state     20
 New state     19 was old state     18
 New state     20 was old state     23
 New state     21 was old state     19
 New state     22 was old state     17
 New state     23 was old state     11
 New state     24 was old state     30
 New state     25 was old state     36
 New state     27 was old state     29
 New state     28 was old state     32
 New state     29 was old state     25
 New state     30 was old state      9
 New state     32 was old state     35
 New state     33 was old state     40
 New state     34 was old state     42
 New state     35 was old state     34
 New state     36 was old state     38
 New state     37 was old state     27
 New state     38 was old state     41
 New state     39 was old state     21
 New state     40 was old state     37
 Excitation Energies [eV] at current iteration:
 Root      1 :     4.351791441582728
 Root      2 :     4.549069682970544
 Root      3 :     4.715273557662549
 Root      4 :     5.104527129617561
 Root      5 :     5.138140845218411
 Root      6 :     5.259017969551040
 Root      7 :     5.398480945185871
 Root      8 :     5.876482417216830
 Root      9 :     5.894123193640270
 Root     10 :     7.579502081973769
 Root     11 :     7.640752817969714
 Root     12 :     7.890679770810286
 Root     13 :     7.913660878966124
 Root     14 :     7.966135800227961
 Root     15 :     8.179579997462390
 Root     16 :     8.309202295082398
 Root     17 :     8.449924701713213
 Root     18 :     8.826657708541248
 Root     19 :     8.829555539419012
 Root     20 :     8.995441009966189
 Root     21 :     8.996141223021867
 Root     22 :     9.005863457620666
 Root     23 :     9.230167857151777
 Root     24 :     9.247852446774532
 Root     25 :     9.357563560509895
 Root     26 :     9.418836778278141
 Root     27 :     9.450615822306846
 Root     28 :     9.563683412115250
 Root     29 :     9.642969303825181
 Root     30 :     9.672432031832436
 Root     31 :     9.743276453247701
 Root     32 :     9.818749303883004
 Root     33 :     9.911252962291121
 Root     34 :     9.924759796860599
 Root     35 :    10.029764444524124
 Root     36 :    10.037380005500028
 Root     37 :    10.041108851236272
 Root     38 :    10.153442857796897
 Root     39 :    10.192814800914642
 Root     40 :    10.238768277763789
 Root     41 :    10.261088926175155
 Root     42 :    10.347227560877704
 Root     43 :    10.385524582460809
 Root     44 :    10.583360382172824
 Root     45 :    10.636958550956694
 Root     46 :    10.670839939340079
 Root     47 :    10.770866582615778
 Root     48 :    10.807608993373030
 Root     49 :    10.904080229659009
 Root     50 :    11.018153087308107
 Root     51 :    11.035244691291554
 Root     52 :    11.053252254151639
 Root     53 :    11.057539124100307
 Root     54 :    11.070094200987397
 Root     55 :    11.110021046178199
 Root     56 :    11.116918602707978
 Root     57 :    11.297558422523817
 Root     58 :    11.314692943597784
 Root     59 :    11.323203958640384
 Root     60 :    11.330250763715735
 Root     61 :    11.366915157751569
 Root     62 :    11.417280316205696
 Root     63 :    11.458714288149968
 Root     64 :    11.473853018548178
 Root     65 :    11.519741855027695
 Root     66 :    11.637288494616319
 Root     67 :    11.669402024220304
 Root     68 :    11.862047246736442
 Root     69 :    11.965154415133687
 Root     70 :    12.006184120843775
 Root     71 :    12.076732386455721
 Root     72 :    12.172523345681132
 Root     73 :    12.209445367921049
 Root     74 :    12.314879054892954
 Root     75 :    12.421832948101375
 Root     76 :    12.431494835766076
 Root     77 :    12.808395359778014
 Root     78 :    12.888107066369249
 Root     79 :    12.943568143007608
 Root     80 :    13.538165952141242
 Iteration     2 Dimension   160 NMult    80 NNew     80
 CISAX will form    80 AO SS matrices at one time.
 NMat=    80 NSing=    40 JSym2X= 0.
 Root      1 not converged, maximum delta is    0.032205090745698
 Root      2 not converged, maximum delta is    0.100836570665903
 Root      3 not converged, maximum delta is    0.011009764036862
 Root      4 not converged, maximum delta is    0.054370241151677
 Root      5 not converged, maximum delta is    0.014989541059068
 Root      6 not converged, maximum delta is    0.021698680335634
 Root      7 not converged, maximum delta is    0.014585962477591
 New state      8 was old state      9
 Root      8 not converged, maximum delta is    0.044697249992405
 New state      9 was old state      8
 Root      9 not converged, maximum delta is    0.009164049482673
 Root     10 not converged, maximum delta is    0.049870033701927
 Root     11 not converged, maximum delta is    0.045576284670877
 New state     12 was old state     13
 Root     12 not converged, maximum delta is    0.043360787617413
 New state     13 was old state     12
 Root     13 not converged, maximum delta is    0.031145125179023
 Root     14 not converged, maximum delta is    0.052670985486333
 New state     15 was old state     23
 Root     15 not converged, maximum delta is    0.154805881864207
 New state     16 was old state     15
 Root     16 not converged, maximum delta is    0.019492631751666
 New state     17 was old state     30
 Root     17 not converged, maximum delta is    0.287855028477042
 New state     18 was old state     16
 Root     18 not converged, maximum delta is    0.028908418587318
 New state     19 was old state     17
 Root     19 not converged, maximum delta is    0.041759439601109
 New state     20 was old state     19
 Root     20 not converged, maximum delta is    0.041812507243993
 New state     21 was old state     18
 Root     21 not converged, maximum delta is    0.052206812881370
 New state     22 was old state     20
 Root     22 not converged, maximum delta is    0.026746703083615
 New state     23 was old state     21
 Root     23 not converged, maximum delta is    0.034411386007674
 New state     24 was old state     22
 Root     24 not converged, maximum delta is    0.251240606196038
 New state     25 was old state     24
 Root     25 not converged, maximum delta is    0.090757366720851
 New state     26 was old state     25
 Root     26 not converged, maximum delta is    0.050790548671935
 New state     27 was old state     26
 Root     27 not converged, maximum delta is    0.033205536669168
 New state     28 was old state     27
 Root     28 not converged, maximum delta is    0.042552882886323
 New state     29 was old state     28
 Root     29 not converged, maximum delta is    0.094436267070394
 New state     30 was old state     29
 Root     30 not converged, maximum delta is    0.021233668558432
 Root     31 not converged, maximum delta is    0.052524898676394
 Root     32 not converged, maximum delta is    0.029268513458873
 New state     33 was old state     39
 Root     33 not converged, maximum delta is    0.197517106324299
 Root     34 not converged, maximum delta is    0.049580092845315
 New state     35 was old state     33
 Root     35 not converged, maximum delta is    0.255427691423353
 New state     36 was old state     37
 Root     36 not converged, maximum delta is    0.149395892129721
 New state     37 was old state     35
 Root     37 not converged, maximum delta is    0.213640240059900
 New state     38 was old state     36
 Root     38 not converged, maximum delta is    0.043032268032294
 New state     39 was old state     38
 Root     39 not converged, maximum delta is    0.070145446358872
 Root     40 not converged, maximum delta is    0.057999686798948
 Excitation Energies [eV] at current iteration:
 Root      1 :     4.275846591793747   Change is   -0.075944849788981
 Root      2 :     4.292233489331363   Change is   -0.256836193639182
 Root      3 :     4.685183536348191   Change is   -0.030090021314357
 Root      4 :     5.051415873225420   Change is   -0.053111256392142
 Root      5 :     5.074313583645596   Change is   -0.063827261572815
 Root      6 :     5.212749301623834   Change is   -0.046268667927205
 Root      7 :     5.374783494559850   Change is   -0.023697450626021
 Root      8 :     5.793806924791876   Change is   -0.100316268848394
 Root      9 :     5.847135357365514   Change is   -0.029347059851317
 Root     10 :     6.843528051233696   Change is   -0.735974030740072
 Root     11 :     7.529817583727188   Change is   -0.110935234242526
 Root     12 :     7.810235899592206   Change is   -0.103424979373919
 Root     13 :     7.839294823744540   Change is   -0.051384947065746
 Root     14 :     7.874833079688376   Change is   -0.091302720539585
 Root     15 :     7.985711218914256   Change is   -1.244456638237522
 Root     16 :     8.085667115167833   Change is   -0.093912882294556
 Root     17 :     8.104218853863776   Change is   -1.568213177968661
 Root     18 :     8.267630037211690   Change is   -0.041572257870708
 Root     19 :     8.349591656347775   Change is   -0.100333045365440
 Root     20 :     8.754275082568865   Change is   -0.075280456850146
 Root     21 :     8.767057060763497   Change is   -0.059600647777751
 Root     22 :     8.928871800438948   Change is   -0.066569209527241
 Root     23 :     8.958209149168042   Change is   -0.037932073853825
 Root     24 :     9.060707268246485   Change is    0.054843810625819
 Root     25 :     9.128118062358208   Change is   -0.119734384416323
 Root     26 :     9.251563902427996   Change is   -0.105999658081899
 Root     27 :     9.373047696755522   Change is   -0.045789081522620
 Root     28 :     9.405880780183168   Change is   -0.044735042123679
 Root     29 :     9.474706259089016   Change is   -0.088977153026234
 Root     30 :     9.606582239469054   Change is   -0.036387064356127
 Root     31 :     9.711911572054921   Change is   -0.031364881192779
 Root     32 :     9.752605972112756   Change is   -0.066143331770248
 Root     33 :     9.847132344303505   Change is   -0.345682456611136
 Root     34 :     9.847162052503737   Change is   -0.077597744356862
 Root     35 :     9.891396655224465   Change is   -0.019856307066655
 Root     36 :     9.892637336276708   Change is   -0.148471514959564
 Root     37 :     9.914655160742063   Change is   -0.115109283782061
 Root     38 :     9.981126550865744   Change is   -0.056253454634285
 Root     39 :    10.114377481758691   Change is   -0.039065376038207
 Root     40 :    10.198897420094253   Change is   -0.039870857669535
 Root     41 :    10.208401295208169   Change is   -0.052687630966985
 Root     42 :    10.216311088461262   Change is   -0.130916472416441
 Root     43 :    10.352733798191982   Change is   -0.032790784268826
 Root     44 :    10.427718855346052   Change is   -0.209239695610642
 Root     45 :    10.483959890239186   Change is   -0.099400491933637
 Root     46 :    10.618199984340491   Change is   -0.052639954999587
 Root     47 :    10.680836064578463   Change is   -0.126772928794568
 Root     48 :    10.730683133010805   Change is   -0.040183449604972
 Root     49 :    10.762722444501847   Change is   -0.141357785157163
 Root     50 :    10.825035689140906   Change is   -0.232503434959401
 Root     51 :    10.931001093313519   Change is   -0.139093107673878
 Root     52 :    10.947361239963723   Change is   -0.087883451327832
 Root     53 :    10.965368501375714   Change is   -0.087883752775926
 Root     54 :    10.991982557213211   Change is   -0.026170530094897
 Root     55 :    11.018639012850931   Change is   -0.098279589857047
 Root     56 :    11.066423537425601   Change is   -1.355409410675775
 Root     57 :    11.079111037785621   Change is   -0.030910008392578
 Root     58 :    11.213840243717863   Change is   -0.203440072487834
 Root     59 :    11.216640937973152   Change is   -0.113609825742585
 Root     60 :    11.231972308806512   Change is   -0.082720634791272
 Root     61 :    11.250166671204996   Change is   -0.073037287435389
 Root     62 :    11.254268279726592   Change is   -0.043290142797225
 Root     63 :    11.335579002762138   Change is   -0.031336154989431
 Root     64 :    11.392505934569762   Change is   -0.066208353580206
 Root     65 :    11.442162851514020   Change is   -0.031690167034159
 Root     66 :    11.467856630417508   Change is   -0.051885224610187
 Root     67 :    11.513292968903086   Change is   -0.123995525713233
 Root     68 :    11.546984933344055   Change is   -0.122417090876250
 Root     69 :    11.615147165278422   Change is   -0.699731889614532
 Root     70 :    11.761593801391298   Change is   -0.315138585064423
 Root     71 :    11.793369640448150   Change is   -0.068677606288293
 Root     72 :    11.855516568141308   Change is   -0.109637846992379
 Root     73 :    11.937789706076533   Change is   -0.068394414767242
 Root     74 :    12.104041953798223   Change is   -0.068481391882908
 Root     75 :    12.156325691644049   Change is   -0.053119676277000
 Root     76 :    12.191822233749184   Change is   -0.239672602016892
 Root     77 :    12.439123415290910   Change is   -1.099042536850331
 Root     78 :    12.744703718685859   Change is   -0.063691641092154
 Root     79 :    12.850586548783884   Change is   -0.037520517585364
 Root     80 :    12.947161128466709   Change is    0.003592985459100
 Iteration     3 Dimension   180 NMult   160 NNew     20
 CISAX will form    20 AO SS matrices at one time.
 NMat=    20 NSing=    10 JSym2X= 0.
 Root      1 not converged, maximum delta is    0.000947388163767
 Root      2 not converged, maximum delta is    0.001007550241342
 Root      3 not converged, maximum delta is    0.000630226033700
 Root      4 not converged, maximum delta is    0.000810062016024
 Root      5 not converged, maximum delta is    0.001705613219237
 Root      6 not converged, maximum delta is    0.001692750861701
 Root      7 not converged, maximum delta is    0.000814840639207
 Root      8 not converged, maximum delta is    0.001308088943247
 Root      9 not converged, maximum delta is    0.000874189447575
 Root     10 not converged, maximum delta is    0.009198780141302
 Root     11 not converged, maximum delta is    0.004568249171934
 Root     12 not converged, maximum delta is    0.001443039414296
 Root     13 not converged, maximum delta is    0.002614371813132
 Root     14 not converged, maximum delta is    0.005982506278266
 Root     15 not converged, maximum delta is    0.007241962399124
 Root     16 not converged, maximum delta is    0.001877648413077
 Root     17 not converged, maximum delta is    0.005474234463071
 Root     18 not converged, maximum delta is    0.002065255501824
 New state     19 was old state     22
 Root     19 not converged, maximum delta is    0.002430297342856
 New state     20 was old state     23
 Root     20 not converged, maximum delta is    0.002614974041596
 Excitation Energies [eV] at current iteration:
 Root      1 :     4.275671063546309   Change is   -0.000175528247438
 Root      2 :     4.291393247525201   Change is   -0.000840241806160
 Root      3 :     4.684998729333518   Change is   -0.000184807014673
 Root      4 :     5.051148478568639   Change is   -0.000267394656780
 Root      5 :     5.073712460553685   Change is   -0.000601123091910
 Root      6 :     5.212501649009750   Change is   -0.000247652614084
 Root      7 :     5.374677163334241   Change is   -0.000106331225609
 Root      8 :     5.793057859992748   Change is   -0.000749064799128
 Root      9 :     5.846948947582407   Change is   -0.000186409783106
 Root     10 :     6.839219172716613   Change is   -0.004308878517083
 Root     11 :     7.528998715080331   Change is   -0.000818868646858
 Root     12 :     7.809296033644944   Change is   -0.000939865947261
 Root     13 :     7.838720782292441   Change is   -0.000574041452099
 Root     14 :     7.873789968939387   Change is   -0.001043110748989
 Root     15 :     7.975658261117587   Change is   -0.010052957796668
 Root     16 :     8.084442871821933   Change is   -0.001224243345900
 Root     17 :     8.093741313439192   Change is   -0.010477540424583
 Root     18 :     8.267108964687971   Change is   -0.000521072523720
 Root     19 :     8.927938130041291   Change is   -0.000933670397658
 Root     20 :     8.957808454556140   Change is   -0.000400694611903
 Iteration     4 Dimension   200 NMult   180 NNew     20
 CISAX will form    20 AO SS matrices at one time.
 NMat=    20 NSing=    10 JSym2X= 0.
 Root      1 not converged, maximum delta is    0.000034641593761
 Root      2 not converged, maximum delta is    0.000136195704517
 Root      3 not converged, maximum delta is    0.000058956300294
 Root      4 not converged, maximum delta is    0.000074611218075
 Root      5 not converged, maximum delta is    0.000141551527096
 Root      6 not converged, maximum delta is    0.000045511076957
 Root      7 not converged, maximum delta is    0.000020000673226
 Root      8 not converged, maximum delta is    0.000085490198163
 Root      9 not converged, maximum delta is    0.000091105017514
 Root     10 not converged, maximum delta is    0.000899742256412
 Root     11 not converged, maximum delta is    0.000305272929202
 Root     12 not converged, maximum delta is    0.000244901129629
 Root     13 not converged, maximum delta is    0.000294302465115
 Root     14 not converged, maximum delta is    0.000322368599117
 Root     15 not converged, maximum delta is    0.000558135225834
 Root     16 not converged, maximum delta is    0.000252199211651
 Root     17 not converged, maximum delta is    0.000378543389193
 Root     18 not converged, maximum delta is    0.000209413330699
 Root     19 not converged, maximum delta is    0.000400532457648
 Root     20 not converged, maximum delta is    0.000187194910831
 Excitation Energies [eV] at current iteration:
 Root      1 :     4.275670586694649   Change is   -0.000000476851660
 Root      2 :     4.291387345498813   Change is   -0.000005902026388
 Root      3 :     4.684997231117947   Change is   -0.000001498215571
 Root      4 :     5.051146080366324   Change is   -0.000002398202315
 Root      5 :     5.073711277014093   Change is   -0.000001183539593
 Root      6 :     5.212500751506804   Change is   -0.000000897502947
 Root      7 :     5.374677040384571   Change is   -0.000000122949671
 Root      8 :     5.793055502200443   Change is   -0.000002357792305
 Root      9 :     5.846947187414365   Change is   -0.000001760168043
 Root     10 :     6.839138457152599   Change is   -0.000080715564013
 Root     11 :     7.528993325250950   Change is   -0.000005389829381
 Root     12 :     7.809281777551044   Change is   -0.000014256093899
 Root     13 :     7.838718383126223   Change is   -0.000002399166218
 Root     14 :     7.873780335059953   Change is   -0.000009633879434
 Root     15 :     7.975602812263380   Change is   -0.000055448854207
 Root     16 :     8.084426524208562   Change is   -0.000016347613373
 Root     17 :     8.093691405221644   Change is   -0.000049908217549
 Root     18 :     8.267107153037301   Change is   -0.000001811650669
 Root     19 :     8.927912377545473   Change is   -0.000025752495817
 Root     20 :     8.957803815625093   Change is   -0.000004638931046
 Iteration     5 Dimension   220 NMult   200 NNew     20
 CISAX will form    20 AO SS matrices at one time.
 NMat=    20 NSing=    10 JSym2X= 0.
 Root      1 not converged, maximum delta is    0.000002493347932
 Root      2 not converged, maximum delta is    0.000005004593546
 Root      3 not converged, maximum delta is    0.000004276746495
 Root      4 not converged, maximum delta is    0.000005049986040
 Root      5 not converged, maximum delta is    0.000005467925689
 Root      6 not converged, maximum delta is    0.000003113616534
 Root      7 not converged, maximum delta is    0.000001207837456
 Root      8 not converged, maximum delta is    0.000007171960917
 Root      9 not converged, maximum delta is    0.000005069829858
 Root     10 not converged, maximum delta is    0.000067246815445
 Root     11 not converged, maximum delta is    0.000023989000956
 Root     12 not converged, maximum delta is    0.000035254853900
 Root     13 not converged, maximum delta is    0.000016277687735
 Root     14 not converged, maximum delta is    0.000016941535052
 Root     15 not converged, maximum delta is    0.000034935246036
 Root     16 not converged, maximum delta is    0.000020087628830
 Root     17 not converged, maximum delta is    0.000030440474851
 Root     18 not converged, maximum delta is    0.000018981169623
 Root     19 not converged, maximum delta is    0.000033590257369
 Root     20 not converged, maximum delta is    0.000013514604015
 Excitation Energies [eV] at current iteration:
 Root      1 :     4.275670585209455   Change is   -0.000000001485195
 Root      2 :     4.291387329834647   Change is   -0.000000015664167
 Root      3 :     4.684997225281692   Change is   -0.000000005836255
 Root      4 :     5.051146069581955   Change is   -0.000000010784370
 Root      5 :     5.073711274279668   Change is   -0.000000002734425
 Root      6 :     5.212500748757273   Change is   -0.000000002749531
 Root      7 :     5.374677040158467   Change is   -0.000000000226103
 Root      8 :     5.793055487762323   Change is   -0.000000014438119
 Root      9 :     5.846947176073683   Change is   -0.000000011340682
 Root     10 :     6.839137887283644   Change is   -0.000000569868956
 Root     11 :     7.528993277961237   Change is   -0.000000047289713
 Root     12 :     7.809281644730400   Change is   -0.000000132820645
 Root     13 :     7.838718372051728   Change is   -0.000000011074496
 Root     14 :     7.873780270593230   Change is   -0.000000064466723
 Root     15 :     7.975602441352553   Change is   -0.000000370910828
 Root     16 :     8.084426431479161   Change is   -0.000000092729400
 Root     17 :     8.093691138667278   Change is   -0.000000266554366
 Root     18 :     8.267107141201697   Change is   -0.000000011835606
 Root     19 :     8.927912293984303   Change is   -0.000000083561170
 Root     20 :     8.957803800922552   Change is   -0.000000014702542
 Iteration     6 Dimension   240 NMult   220 NNew     20
 CISAX will form    20 AO SS matrices at one time.
 NMat=    20 NSing=    10 JSym2X= 0.
 Root      1 has converged.
 Root      2 has converged.
 Root      3 has converged.
 Root      4 has converged.
 Root      5 has converged.
 Root      6 has converged.
 Root      7 has converged.
 Root      8 has converged.
 Root      9 has converged.
 Root     10 not converged, maximum delta is    0.000003808267120
 Root     11 not converged, maximum delta is    0.000001190179451
 Root     12 not converged, maximum delta is    0.000005020768098
 Root     13 has converged.
 Root     14 not converged, maximum delta is    0.000001149154137
 Root     15 not converged, maximum delta is    0.000004907695190
 Root     16 not converged, maximum delta is    0.000002054497658
 Root     17 not converged, maximum delta is    0.000002845299730
 Root     18 has converged.
 Root     19 not converged, maximum delta is    0.000001473297903
 Root     20 not converged, maximum delta is    0.000001253421986
 Excitation Energies [eV] at current iteration:
 Root      1 :     4.275670585206198   Change is   -0.000000000003257
 Root      2 :     4.291387329760769   Change is   -0.000000000073877
 Root      3 :     4.684997225260683   Change is   -0.000000000021009
 Root      4 :     5.051146069530481   Change is   -0.000000000051473
 Root      5 :     5.073711274277469   Change is   -0.000000000002199
 Root      6 :     5.212500748750615   Change is   -0.000000000006658
 Root      7 :     5.374677040158014   Change is   -0.000000000000453
 Root      8 :     5.793055487684639   Change is   -0.000000000077684
 Root      9 :     5.846947176006186   Change is   -0.000000000067497
 Root     10 :     6.839137883299982   Change is   -0.000000003983662
 Root     11 :     7.528993277697317   Change is   -0.000000000263921
 Root     12 :     7.809281641973975   Change is   -0.000000002756425
 Root     13 :     7.838718372011559   Change is   -0.000000000040168
 Root     14 :     7.873780270299051   Change is   -0.000000000294180
 Root     15 :     7.975602437879578   Change is   -0.000000003472974
 Root     16 :     8.084426430532757   Change is   -0.000000000946405
 Root     17 :     8.093691137330158   Change is   -0.000000001337120
 Root     18 :     8.267107141171746   Change is   -0.000000000029951
 Root     19 :     8.927912293655485   Change is   -0.000000000328819
 Root     20 :     8.957803800837455   Change is   -0.000000000085098
 Iteration     7 Dimension   249 NMult   240 NNew      9
 CISAX will form     9 AO SS matrices at one time.
 NMat=     9 NSing=     5 JSym2X= 0.
 Root      1 has converged.
 Root      2 has converged.
 Root      3 has converged.
 Root      4 has converged.
 Root      5 has converged.
 Root      6 has converged.
 Root      7 has converged.
 Root      8 has converged.
 Root      9 has converged.
 Root     10 has converged.
 Root     11 has converged.
 Root     12 not converged, maximum delta is    0.000001002556942
 Root     13 has converged.
 Root     14 has converged.
 Root     15 has converged.
 Root     16 has converged.
 Root     17 not converged, maximum delta is    0.000001006741882
 Root     18 has converged.
 Root     19 has converged.
 Root     20 has converged.
 Excitation Energies [eV] at current iteration:
 Root      1 :     4.275670585206204   Change is    0.000000000000006
 Root      2 :     4.291387329760751   Change is   -0.000000000000018
 Root      3 :     4.684997225260623   Change is   -0.000000000000060
 Root      4 :     5.051146069530439   Change is   -0.000000000000042
 Root      5 :     5.073711274277445   Change is   -0.000000000000024
 Root      6 :     5.212500748750578   Change is   -0.000000000000036
 Root      7 :     5.374677040158014   Change is    0.000000000000000
 Root      8 :     5.793055487684434   Change is   -0.000000000000205
 Root      9 :     5.846947176006156   Change is   -0.000000000000030
 Root     10 :     6.839137883281619   Change is   -0.000000000018362
 Root     11 :     7.528993277696531   Change is   -0.000000000000785
 Root     12 :     7.809281641961553   Change is   -0.000000000012423
 Root     13 :     7.838718372011572   Change is    0.000000000000012
 Root     14 :     7.873780270298283   Change is   -0.000000000000767
 Root     15 :     7.975602437855156   Change is   -0.000000000024422
 Root     16 :     8.084426430522678   Change is   -0.000000000010078
 Root     17 :     8.093691137320679   Change is   -0.000000000009480
 Root     18 :     8.267107141171763   Change is    0.000000000000018
 Root     19 :     8.927912293654723   Change is   -0.000000000000761
 Root     20 :     8.957803800836983   Change is   -0.000000000000471
 Iteration     8 Dimension   251 NMult   249 NNew      2
 CISAX will form     2 AO SS matrices at one time.
 NMat=     2 NSing=     1 JSym2X= 0.
 Root      1 has converged.
 Root      2 has converged.
 Root      3 has converged.
 Root      4 has converged.
 Root      5 has converged.
 Root      6 has converged.
 Root      7 has converged.
 Root      8 has converged.
 Root      9 has converged.
 Root     10 has converged.
 Root     11 has converged.
 Root     12 has converged.
 Root     13 has converged.
 Root     14 has converged.
 Root     15 has converged.
 Root     16 has converged.
 Root     17 has converged.
 Root     18 has converged.
 Root     19 has converged.
 Root     20 has converged.
 Excitation Energies [eV] at current iteration:
 Root      1 :     4.275670585206186   Change is   -0.000000000000018
 Root      2 :     4.291387329760734   Change is   -0.000000000000018
 Root      3 :     4.684997225260653   Change is    0.000000000000030
 Root      4 :     5.051146069530427   Change is   -0.000000000000012
 Root      5 :     5.073711274277445   Change is    0.000000000000000
 Root      6 :     5.212500748750597   Change is    0.000000000000018
 Root      7 :     5.374677040158032   Change is    0.000000000000018
 Root      8 :     5.793055487684458   Change is    0.000000000000024
 Root      9 :     5.846947176006156   Change is    0.000000000000000
 Root     10 :     6.839137883281626   Change is    0.000000000000006
 Root     11 :     7.528993277696555   Change is    0.000000000000024
 Root     12 :     7.809281641961402   Change is   -0.000000000000151
 Root     13 :     7.838718372011535   Change is   -0.000000000000036
 Root     14 :     7.873780270298301   Change is    0.000000000000018
 Root     15 :     7.975602437855132   Change is   -0.000000000000024
 Root     16 :     8.084426430522690   Change is    0.000000000000012
 Root     17 :     8.093691137320485   Change is   -0.000000000000193
 Root     18 :     8.267107141171751   Change is   -0.000000000000012
 Root     19 :     8.927912293654650   Change is   -0.000000000000073
 Root     20 :     8.957803800837013   Change is    0.000000000000030
 Convergence achieved on expansion vectors.
 ***********************************************************************
 Excited states from <AA,BB:AA,BB> singles matrix:
 ***********************************************************************
 
 1PDM for each excited state written to RWF  633
 Ground to excited state transition densities written to RWF  633
 Ground to excited state transition electric dipole moments (Au):
       state          X           Y           Z        Dip. S.      Osc.
         1        -0.0000     -0.0000     -0.0000      0.0000      0.0000
         2        -0.0000     -0.0000     -0.0000      0.0000      0.0000
         3        -0.0000     -0.0000     -0.0000      0.0000      0.0000
         4        -0.0000     -0.0000     -0.0000      0.0000      0.0000
         5        -0.0000     -0.0001      0.2313      0.0535      0.0066
         6         0.0000      0.0000      0.0000      0.0000      0.0000
         7         0.0000     -0.0000     -0.0000      0.0000      0.0000
         8        -0.5599      0.0000     -0.0000      0.3135      0.0445
         9         0.0000     -0.0000      0.0000      0.0000      0.0000
        10        -0.0001     -0.4192      0.0000      0.1757      0.0294
        11        -0.0000     -0.0000      0.0000      0.0000      0.0000
        12        -0.0000     -0.0000     -0.0000      0.0000      0.0000
        13        -0.0003     -0.0002     -0.0000      0.0000      0.0000
        14        -0.0000      0.0000     -0.0000      0.0000      0.0000
        15         2.1023     -0.0002     -0.0000      4.4195      0.8636
        16        -0.0000     -0.0000      0.0000      0.0000      0.0000
        17        -0.0002     -2.1047     -0.0001      4.4296      0.8783
        18        -0.0002      0.0001     -0.1843      0.0340      0.0069
        19        -0.0000     -0.0001     -0.0016      0.0000      0.0000
        20        -0.0000     -0.0001      0.0000      0.0000      0.0000
 Ground to excited state transition velocity dipole moments (Au):
       state          X           Y           Z        Dip. S.      Osc.
         1         0.0000      0.0000      0.0000      0.0000      0.0000
         2         0.0000      0.0000      0.0000      0.0000      0.0000
         3         0.0000      0.0000      0.0000      0.0000      0.0000
         4         0.0000      0.0000      0.0000      0.0000      0.0000
         5         0.0000      0.0000     -0.0092      0.0001      0.0003
         6        -0.0000     -0.0000     -0.0000      0.0000      0.0000
         7        -0.0000      0.0000      0.0000      0.0000      0.0000
         8         0.0228     -0.0000      0.0000      0.0005      0.0016
         9        -0.0000     -0.0000     -0.0000      0.0000      0.0000
        10         0.0000      0.0544      0.0000      0.0030      0.0079
        11        -0.0000      0.0000     -0.0000      0.0000      0.0000
        12        -0.0000      0.0000     -0.0000      0.0000      0.0000
        13         0.0000      0.0000      0.0000      0.0000      0.0000
        14        -0.0000     -0.0000      0.0000      0.0000      0.0000
        15        -0.2317      0.0000      0.0000      0.0537      0.1221
        16         0.0000     -0.0000     -0.0000      0.0000      0.0000
        17         0.0000      0.2045      0.0000      0.0418      0.0937
        18         0.0000     -0.0000      0.0443      0.0020      0.0043
        19         0.0000      0.0000      0.0256      0.0007      0.0013
        20         0.0000      0.0000     -0.0000      0.0000      0.0000
 Ground to excited state transition magnetic dipole moments (Au):
       state          X           Y           Z
         1         0.0000      0.0000      0.0000
         2         0.0000      0.0000      0.0000
         3         0.0000      0.0000      0.0000
         4         0.0000      0.0000      0.0000
         5         0.6909     -0.0000     -0.0000
         6         0.0000      0.0000      0.0000
         7        -0.0001     -0.0289      0.0000
         8        -0.0001      0.0000     -0.1776
         9         0.0000      0.0000     -0.0000
        10         0.0000     -0.0000     -0.0000
        11         0.0000      0.0000      0.0000
        12        -0.0000      0.0000      0.0000
        13        -0.0000     -0.1590      0.0000
        14        -0.0000      0.0000      0.0000
        15         0.0000     -0.0000      0.0393
        16         0.0000      0.0000      0.0000
        17        -0.0000      0.0000      0.0000
        18        -0.3344      0.0000      0.0000
        19         1.2495     -0.0001     -0.0000
        20         0.0001      0.5254      0.0000
 Ground to excited state transition velocity quadrupole moments (Au):
       state          XX          YY          ZZ          XY          XZ          YZ
         1         0.0000      0.0000      0.0000      0.0000      0.0000      0.0000
         2         0.0000      0.0000      0.0000      0.0000      0.0000      0.0000
         3         0.0000      0.0000      0.0000      0.0000      0.0000      0.0000
         4         0.0000      0.0000      0.0000      0.0000      0.0000      0.0000
         5        -0.0000     -0.0000      0.0000      0.0000      0.0000      0.0407
         6        -0.0000     -0.0000     -0.0000      0.0000     -0.0000     -0.0000
         7         0.0000      0.0000     -0.0000      0.0000     -0.0099     -0.0000
         8        -0.0000      0.0000      0.0000     -0.0156      0.0000     -0.0000
         9         0.0000     -0.0000      0.0000      0.0000     -0.0000     -0.0000
        10         0.1278     -0.1530     -0.0047     -0.0000      0.0000      0.0000
        11        -0.0000      0.0000     -0.0000     -0.0000      0.0000     -0.0000
        12        -0.0000     -0.0000     -0.0000     -0.0000      0.0000     -0.0000
        13        -0.0000      0.0000      0.0000      0.0000      0.0044     -0.0000
        14         0.0000     -0.0000     -0.0000     -0.0000     -0.0000     -0.0000
        15        -0.0000      0.0000      0.0000     -0.0190     -0.0000     -0.0000
        16        -0.0000      0.0000     -0.0000      0.0000      0.0000     -0.0000
        17        -0.3280      0.3685      0.0320      0.0000      0.0000     -0.0000
        18         0.0000     -0.0000      0.0000     -0.0000     -0.0000     -0.0268
        19        -0.0000      0.0000      0.0000      0.0000      0.0000      0.2047
        20         0.0003     -0.0002     -0.0000     -0.0000     -0.2093      0.0000
 <0|del|b> * <b|rxdel|0> + <0|del|b> * <b|delr+rdel|0>
 Rotatory Strengths (R) in cgs (10**-40 erg-esu-cm/Gauss)
       state          XX          YY          ZZ    R(velocity)    E-M Angle
         1         0.0000      0.0000      0.0000      0.0000       90.00
         2         0.0000      0.0000      0.0000      0.0000       90.00
         3         0.0000      0.0000      0.0000      0.0000       90.00
         4         0.0000      0.0000      0.0000      0.0000       90.00
         5         0.0002      0.0022      0.0015      0.0013       90.00
         6        -0.0000     -0.0000     -0.0000     -0.0000       90.00
         7        -0.0001      0.0000     -0.0002     -0.0001       90.00
         8        -0.0008     -0.0031     -0.0014     -0.0018       90.00
         9        -0.0000      0.0000     -0.0000     -0.0000       90.00
        10        -0.0024      0.0000     -0.0007     -0.0010       90.00
        11         0.0000      0.0000     -0.0000      0.0000       90.00
        12         0.0000      0.0000      0.0000      0.0000       90.00
        13        -0.0046     -0.0000     -0.0044     -0.0030       90.00
        14        -0.0000      0.0000     -0.0000      0.0000       90.00
        15         0.0001     -0.0001     -0.0031     -0.0010       90.00
        16        -0.0000     -0.0000     -0.0000     -0.0000       90.00
        17         0.0022     -0.0000      0.0071      0.0031       90.00
        18         0.0007     -0.0130     -0.0118     -0.0080       90.00
        19        -0.0006      0.0142      0.0107      0.0081       90.00
        20         0.0100      0.0000      0.0043      0.0048       90.00
 1/2[<0|r|b>*<b|rxdel|0> + (<0|rxdel|b>*<b|r|0>)*]
 Rotatory Strengths (R) in cgs (10**-40 erg-esu-cm/Gauss)
       state          XX          YY          ZZ     R(length)
         1         0.0000      0.0000      0.0000      0.0000
         2         0.0000      0.0000      0.0000      0.0000
         3         0.0000      0.0000      0.0000      0.0000
         4         0.0000      0.0000      0.0000      0.0000
         5         0.0160     -0.0000      0.0030      0.0064
         6        -0.0000     -0.0000     -0.0000     -0.0000
         7         0.0000     -0.0005      0.0000     -0.0002
         8        -0.0199     -0.0000     -0.0002     -0.0067
         9        -0.0000      0.0000      0.0000     -0.0000
        10         0.0000     -0.0061      0.0000     -0.0020
        11         0.0000      0.0000     -0.0000      0.0000
        12        -0.0000      0.0000      0.0000      0.0000
        13        -0.0000     -0.0254      0.0000     -0.0085
        14        -0.0000     -0.0000      0.0000     -0.0000
        15        -0.0093     -0.0000      0.0011     -0.0027
        16         0.0000      0.0000     -0.0000      0.0000
        17        -0.0000      0.0285      0.0000      0.0095
        18        -0.0540     -0.0000      0.0019     -0.0174
        19         0.0403     -0.0000     -0.0000      0.0134
        20         0.0000      0.0457     -0.0000      0.0152
  1/2[<0|del|b>*<b|r|0> + (<0|r|b>*<b|del|0>)*] (Au)
       state          X           Y           Z        Dip. S.   Osc.(frdel)
         1        -0.0000     -0.0000     -0.0000      0.0000      0.0000
         2        -0.0000     -0.0000     -0.0000      0.0000      0.0000
         3        -0.0000     -0.0000     -0.0000      0.0000      0.0000
         4        -0.0000     -0.0000     -0.0000      0.0000      0.0000
         5        -0.0000     -0.0000     -0.0021      0.0021      0.0014
         6        -0.0000     -0.0000     -0.0000      0.0000      0.0000
         7        -0.0000     -0.0000     -0.0000      0.0000      0.0000
         8        -0.0127     -0.0000     -0.0000      0.0127      0.0085
         9        -0.0000      0.0000     -0.0000     -0.0000     -0.0000
        10        -0.0000     -0.0228      0.0000      0.0228      0.0152
        11         0.0000     -0.0000     -0.0000      0.0000      0.0000
        12         0.0000     -0.0000      0.0000      0.0000      0.0000
        13        -0.0000     -0.0000     -0.0000      0.0000      0.0000
        14         0.0000     -0.0000     -0.0000      0.0000      0.0000
        15        -0.4871     -0.0000     -0.0000      0.4871      0.3247
        16        -0.0000      0.0000     -0.0000     -0.0000     -0.0000
        17        -0.0000     -0.4304     -0.0000      0.4304      0.2869
        18        -0.0000     -0.0000     -0.0082      0.0082      0.0054
        19        -0.0000     -0.0000     -0.0000      0.0000      0.0000
        20        -0.0000     -0.0000     -0.0000      0.0000      0.0000

 Excitation energies and oscillator strengths:
 
 Excited State   1:      Triplet-A      4.2757 eV  289.98 nm  f=0.0000  <S**2>=2.000
      21 -> 22         0.69591
      21 -> 26         0.10972
 This state for optimization and/or second-order correction.
 Total Energy, E(CIS/TDA) =  -247.849832098    
 Copying the excited state density for this state as the 1-particle RhoCI density.
 
 Excited State   2:      Triplet-A      4.2914 eV  288.91 nm  f=0.0000  <S**2>=2.000
      17 -> 26         0.10009
      19 -> 22        -0.38874
      20 -> 23         0.57871
 
 Excited State   3:      Triplet-A      4.6850 eV  264.64 nm  f=0.0000  <S**2>=2.000
      19 -> 23        -0.12092
      20 -> 22         0.69582
 
 Excited State   4:      Triplet-A      5.0511 eV  245.46 nm  f=0.0000  <S**2>=2.000
      19 -> 22         0.58382
      20 -> 23         0.39693
 
 Excited State   5:      Singlet-A      5.0737 eV  244.37 nm  f=0.0066  <S**2>=0.000
      21 -> 22         0.70449
 
 Excited State   6:      Triplet-A      5.2125 eV  237.86 nm  f=0.0000  <S**2>=2.000
      21 -> 23         0.70551
 
 Excited State   7:      Singlet-A      5.3747 eV  230.68 nm  f=0.0000  <S**2>=0.000
      21 -> 23         0.70633
 
 Excited State   8:      Singlet-A      5.7931 eV  214.02 nm  f=0.0445  <S**2>=0.000
      19 -> 23         0.38831
      20 -> 22         0.58778
 
 Excited State   9:      Triplet-A      5.8469 eV  212.05 nm  f=0.0000  <S**2>=2.000
      19 -> 23         0.69407
      20 -> 22         0.11967
 
 Excited State  10:      Singlet-A      6.8391 eV  181.29 nm  f=0.0294  <S**2>=0.000
      19 -> 22        -0.41662
      20 -> 23         0.55857
 
 Excited State  11:      Triplet-A      7.5290 eV  164.68 nm  f=0.0000  <S**2>=2.000
      18 -> 22         0.70156
 
 Excited State  12:      Triplet-A      7.8093 eV  158.77 nm  f=0.0000  <S**2>=2.000
      17 -> 22         0.64546
      19 -> 26        -0.28045
 
 Excited State  13:      Singlet-A      7.8387 eV  158.17 nm  f=0.0000  <S**2>=0.000
      18 -> 22         0.70449
 
 Excited State  14:      Triplet-A      7.8738 eV  157.46 nm  f=0.0000  <S**2>=2.000
      18 -> 23         0.70088
 
 Excited State  15:      Singlet-A      7.9756 eV  155.45 nm  f=0.8636  <S**2>=0.000
      19 -> 23         0.57359
      20 -> 22        -0.36663
 
 Excited State  16:      Triplet-A      8.0844 eV  153.36 nm  f=0.0000  <S**2>=2.000
      17 -> 23         0.57006
      20 -> 26         0.41079
 
 Excited State  17:      Singlet-A      8.0937 eV  153.19 nm  f=0.8783  <S**2>=0.000
      19 -> 22         0.53887
      20 -> 23         0.40172
      21 -> 24        -0.10353
 
 Excited State  18:      Singlet-A      8.2671 eV  149.97 nm  f=0.0069  <S**2>=0.000
      18 -> 23         0.70441
 
 Excited State  19:      Singlet-A      8.9279 eV  138.87 nm  f=0.0000  <S**2>=0.000
      16 -> 22         0.69236
      21 -> 26         0.11220
 
 Excited State  20:      Singlet-A      8.9578 eV  138.41 nm  f=0.0000  <S**2>=0.000
      20 -> 24         0.70186
 SavETr:  write IOETrn=   770 NScale= 10 NData=  16 NLR=1 NState=   20 LETran=     370.
 The selected state is a triplet.
 CISGrd: IGrad=1 NXY=1 DFT=T
 CISAX will form     1 AO SS matrices at one time.
 NMat=     1 NSing=     0 JSym2X= 0.
 Leave Link  914 at Wed Jun 15 23:33:32 2022, MaxMem=  1342177280 cpu:             844.4 elap:             212.5
 (Enter /gpfs1/apps/software/Gaussian16/AVX/g16/l1002.exe)
 Minotr:  Closed shell wavefunction.
          Computing CIS/TDA/TD derivatives.
          Using Z-Vector for PSCF gradient.
          Skipping F1 and S1 gradient terms here.
 NEqPCM:  Using equilibrium solvation (IEInf=0, Eps=   2.3741, EpsInf=   2.2383)
          Frozen-core window.
          Direct CPHF calculation.
          Differentiating once with respect to electric field.
                with respect to dipole field.
          Electric field/nuclear overlap derivatives assumed to be zero.
          Requested convergence is 1.0D-10 RMS, and 1.0D-09 maximum.
          NewPWx=F KeepS1=T KeepF1=T KeepIn=T MapXYZ=F SortEE=F KeepMc=T.
 Keep R1 ints in memory in canonical form, NReq=26113181.
 FoFCou: FMM=F IPFlag=           0 FMFlag=           0 FMFlg1=           0
         NFxFlg=           0 DoJE=F BraDBF=F KetDBF=F FulRan=T
         wScrn=  0.000000 ICntrl=       600 IOpCl=  0 I1Cent=           0 NGrid=           0
         NMat0=    1 NMatS0=   6670 NMatT0=    0 NMatD0=    1 NMtDS0=    0 NMtDT0=    0
 Symmetry not used in FoFCou.
[...]
  99        3PY        -0.00000  -0.00004   0.00000   0.00000  -0.00000
 100        3PZ         0.00000   0.00000  -0.00000  -0.00000   0.00000
 101 9   H  1S         -0.00000  -0.00000   0.00000   0.00000  -0.00000
 102        2S         -0.00000  -0.00012  -0.00000   0.00000  -0.00000
 103        3PX         0.00000   0.00000   0.00000  -0.00000   0.00000
 104        3PY         0.00000  -0.00000   0.00000  -0.00000  -0.00000
 105        3PZ         0.00000   0.00000   0.00000  -0.00000  -0.00000
 106 10  H  1S          0.00000   0.00000  -0.00000  -0.00000   0.00000
 107        2S          0.00000   0.00001  -0.00000  -0.00000   0.00000
 108        3PX        -0.00000  -0.00000  -0.00000   0.00000   0.00000
 109        3PY         0.00000   0.00000   0.00000  -0.00000   0.00000
 110        3PZ         0.00000   0.00000   0.00000  -0.00000  -0.00000
 111 11  H  1S         -0.00000  -0.00001   0.00000  -0.00000   0.00000
 112        2S         -0.00001  -0.00028  -0.00000  -0.00000   0.00000
 113        3PX         0.00000  -0.00000   0.00000   0.00000   0.00000
 114        3PY         0.00000   0.00000  -0.00000   0.00000   0.00000
 115        3PZ         0.00000   0.00000   0.00000   0.00000   0.00000
                          96        97        98        99       100
  96 8   H  1S          0.21390
  97        2S          0.10048   0.12043
  98        3PX         0.00000   0.00000   0.00043
  99        3PY         0.00000   0.00000   0.00000   0.00021
 100        3PZ         0.00000   0.00000   0.00000   0.00000   0.00022
 101 9   H  1S         -0.00001  -0.00061  -0.00000  -0.00000   0.00000
 102        2S         -0.00064  -0.00290  -0.00002  -0.00001   0.00000
 103        3PX        -0.00000  -0.00003   0.00000   0.00000  -0.00000
 104        3PY        -0.00000  -0.00001   0.00000   0.00000   0.00000
 105        3PZ         0.00000   0.00000   0.00000   0.00000   0.00000
 106 10  H  1S         -0.00000  -0.00000   0.00000   0.00000   0.00000
 107        2S         -0.00000  -0.00017   0.00000   0.00000   0.00000
 108        3PX         0.00000   0.00000  -0.00000  -0.00000   0.00000
 109        3PY        -0.00000  -0.00000   0.00000  -0.00000  -0.00000
 110        3PZ        -0.00000  -0.00000  -0.00000  -0.00000  -0.00000
 111 11  H  1S          0.00000   0.00000  -0.00000   0.00000   0.00000
 112        2S          0.00000   0.00001  -0.00000   0.00000   0.00000
 113        3PX        -0.00000  -0.00000  -0.00000   0.00000   0.00000
 114        3PY        -0.00000  -0.00000   0.00000  -0.00000  -0.00000
 115        3PZ         0.00000   0.00000   0.00000   0.00000  -0.00000
                         101       102       103       104       105
 101 9   H  1S          0.21216
 102        2S          0.10753   0.14003
 103        3PX         0.00000   0.00000   0.00011
 104        3PY         0.00000   0.00000   0.00000   0.00048
 105        3PZ         0.00000   0.00000   0.00000   0.00000   0.00031
 106 10  H  1S         -0.00001  -0.00064  -0.00000  -0.00000   0.00000
 107        2S         -0.00061  -0.00290  -0.00003  -0.00001   0.00000
 108        3PX        -0.00000  -0.00002   0.00000   0.00000   0.00000
 109        3PY        -0.00000  -0.00001   0.00000   0.00000   0.00000
 110        3PZ         0.00000   0.00000   0.00000   0.00000   0.00000
 111 11  H  1S         -0.00000  -0.00000   0.00000   0.00000   0.00000
 112        2S         -0.00000  -0.00012   0.00000  -0.00000   0.00000
 113        3PX         0.00000  -0.00000   0.00000   0.00000   0.00000
 114        3PY         0.00000   0.00000  -0.00000  -0.00000  -0.00000
 115        3PZ        -0.00000  -0.00000   0.00000   0.00000  -0.00000
                         106       107       108       109       110
 106 10  H  1S          0.21390
 107        2S          0.10048   0.12043
 108        3PX         0.00000   0.00000   0.00043
 109        3PY         0.00000   0.00000   0.00000   0.00021
 110        3PZ         0.00000   0.00000   0.00000   0.00000   0.00022
 111 11  H  1S         -0.00001  -0.00074  -0.00000  -0.00000   0.00000
 112        2S         -0.00087  -0.00377   0.00000  -0.00004   0.00000
 113        3PX         0.00000   0.00000  -0.00000   0.00000  -0.00000
 114        3PY        -0.00000  -0.00002  -0.00000   0.00000  -0.00000
 115        3PZ         0.00000   0.00000   0.00000  -0.00000   0.00000
                         111       112       113       114       115
 111 11  H  1S          0.21235
 112        2S          0.09783   0.11558
 113        3PX         0.00000   0.00000   0.00039
 114        3PY         0.00000   0.00000   0.00000   0.00019
 115        3PZ         0.00000   0.00000   0.00000   0.00000   0.00028
     Gross orbital populations:
                           1
   1 1   C  1S          1.99246
   2        2S          0.69493
   3        2PX         0.70385
   4        2PY         0.72042
   5        2PZ         0.63270
   6        3S          0.40689
   7        3PX         0.14035
   8        3PY         0.19745
   9        3PZ         0.45926
  10        4XX         0.00873
  11        4YY         0.00863
  12        4ZZ        -0.02177
  13        4XY         0.01972
  14        4XZ         0.00825
  15        4YZ         0.00916
  16 2   C  1S          1.99273
  17        2S          0.69595
  18        2PX         0.75742
  19        2PY         0.71063
  20        2PZ         0.57333
  21        3S          0.51992
  22        3PX         0.25347
  23        3PY         0.16844
  24        3PZ         0.44049
  25        4XX         0.00851
  26        4YY         0.00693
  27        4ZZ        -0.02042
  28        4XY         0.01054
  29        4XZ         0.00447
  30        4YZ         0.00871
  31 3   C  1S          1.99254
  32        2S          0.67632
  33        2PX         0.73075
  34        2PY         0.72170
  35        2PZ         0.64180
  36        3S          0.49085
  37        3PX         0.16504
  38        3PY         0.24926
  39        3PZ         0.50930
  40        4XX         0.00738
  41        4YY         0.00896
  42        4ZZ        -0.01956
  43        4XY         0.01078
  44        4XZ         0.00528
  45        4YZ         0.00293
  46 4   C  1S          1.99273
  47        2S          0.69596
  48        2PX         0.75742
  49        2PY         0.71063
  50        2PZ         0.57333
  51        3S          0.51992
  52        3PX         0.25347
  53        3PY         0.16845
  54        3PZ         0.44049
  55        4XX         0.00851
  56        4YY         0.00693
  57        4ZZ        -0.02042
  58        4XY         0.01054
  59        4XZ         0.00447
  60        4YZ         0.00871
  61 5   C  1S          1.99246
  62        2S          0.69493
  63        2PX         0.70385
  64        2PY         0.72041
  65        2PZ         0.63270
  66        3S          0.40689
  67        3PX         0.14036
  68        3PY         0.19744
  69        3PZ         0.45927
  70        4XX         0.00873
  71        4YY         0.00863
  72        4ZZ        -0.02177
  73        4XY         0.01972
  74        4XZ         0.00825
  75        4YZ         0.00916
  76 6   N  1S          1.99253
  77        2S          0.78468
  78        2PX         0.82338
  79        2PY         0.64748
  80        2PZ         0.94941
  81        3S          0.91412
  82        3PX         0.26956
  83        3PY         0.35120
  84        3PZ         0.58843
  85        4XX         0.00994
  86        4YY         0.00016
  87        4ZZ        -0.02132
  88        4XY         0.01235
  89        4XZ         0.00785
  90        4YZ         0.00499
  91 7   H  1S          0.52129
  92        2S          0.30260
  93        3PX         0.00627
  94        3PY         0.00323
  95        3PZ         0.00351
  96 8   H  1S          0.52525
  97        2S          0.31159
  98        3PX         0.00676
  99        3PY         0.00325
 100        3PZ         0.00293
 101 9   H  1S          0.52398
 102        2S          0.33673
 103        3PX         0.00185
 104        3PY         0.00774
 105        3PZ         0.00394
 106 10  H  1S          0.52524
 107        2S          0.31159
 108        3PX         0.00676
 109        3PY         0.00325
 110        3PZ         0.00293
 111 11  H  1S          0.52129
 112        2S          0.30260
 113        3PX         0.00627
 114        3PY         0.00323
 115        3PZ         0.00351
          Condensed to atoms (all electrons):
               1          2          3          4          5          6
     1  C    4.891497   0.596310  -0.062498  -0.031954  -0.040032   0.275950
     2  C    0.596310   4.795261   0.495506  -0.029808  -0.031953  -0.022840
     3  C   -0.062498   0.495506   5.034180   0.495508  -0.062498  -0.028319
     4  C   -0.031954  -0.029808   0.495508   4.795261   0.596311  -0.022840
     5  C   -0.040032  -0.031953  -0.062498   0.596311   4.891504   0.275945
     6  N    0.275950  -0.022840  -0.028319  -0.022840   0.275945   6.940648
     7  H    0.381216  -0.026470   0.003807   0.000739   0.004205  -0.045181
     8  H   -0.038940   0.387857  -0.033287   0.004713   0.000044   0.003135
     9  H    0.005230  -0.038180   0.380395  -0.038180   0.005230   0.000309
    10  H    0.000044   0.004713  -0.033287   0.387856  -0.038939   0.003135
    11  H    0.004205   0.000739   0.003807  -0.026470   0.381218  -0.045181
               7          8          9         10         11
     1  C    0.381216  -0.038940   0.005230   0.000044   0.004205
     2  C   -0.026470   0.387857  -0.038180   0.004713   0.000739
     3  C    0.003807  -0.033287   0.380395  -0.033287   0.003807
     4  C    0.000739   0.004713  -0.038180   0.387856  -0.026470
     5  C    0.004205   0.000044   0.005230  -0.038939   0.381218
     6  N   -0.045181   0.003135   0.000309   0.003135  -0.045181
     7  H    0.524460  -0.005464  -0.000126   0.000006  -0.000297
     8  H   -0.005464   0.536130  -0.004235  -0.000174   0.000006
     9  H   -0.000126  -0.004235   0.568150  -0.004236  -0.000126
    10  H    0.000006  -0.000174  -0.004236   0.536129  -0.005464
    11  H   -0.000297   0.000006  -0.000126  -0.005464   0.524459
 Mulliken charges:
               1
     1  C    0.018971
     2  C   -0.131135
     3  C   -0.193315
     4  C   -0.131135
     5  C    0.018966
     6  N   -0.334761
     7  H    0.163105
     8  H    0.150216
     9  H    0.125769
    10  H    0.150216
    11  H    0.163103
 Sum of Mulliken charges =  -0.00000
 Mulliken charges with hydrogens summed into heavy atoms:
               1
     1  C    0.182076
     2  C    0.019080
     3  C   -0.067546
     4  C    0.019082
     5  C    0.182069
     6  N   -0.334761
 Electronic spatial extent (au):  <R**2>=            429.9490
 Charge=             -0.0000 electrons
 Dipole moment (field-independent basis, Debye):
    X=              0.0000    Y=             -0.4448    Z=              0.0010  Tot=              0.4448
 Quadrupole moment (field-independent basis, Debye-Ang):
   XX=            -28.4591   YY=            -31.5670   ZZ=            -38.6092
   XY=             -0.0002   XZ=              0.0001   YZ=             -0.0027
 Traceless Quadrupole moment (field-independent basis, Debye-Ang):
   XX=              4.4193   YY=              1.3115   ZZ=             -5.7308
   XY=             -0.0002   XZ=              0.0001   YZ=             -0.0027
 Octapole moment (field-independent basis, Debye-Ang**2):
  XXX=              0.0001  YYY=             -1.0436  ZZZ=              0.0007  XYY=             -0.0000
  XXY=             -1.4387  XXZ=             -0.0006  XZZ=             -0.0000  YZZ=             -1.8825
  YYZ=              0.0065  XYZ=              0.0000
 Hexadecapole moment (field-independent basis, Debye-Ang**3):
 XXXX=           -236.9063 YYYY=           -249.9412 ZZZZ=            -39.6275 XXXY=              0.0001
 XXXZ=              0.0013 YYYX=             -0.0010 YYYZ=             -0.0164 ZZZX=              0.0010
 ZZZY=             -0.0051 XXYY=            -74.2261 XXZZ=            -58.2630 YYZZ=            -55.8913
 XXYZ=              0.0014 YYXZ=              0.0003 ZZXY=              0.0000
 N-N= 2.063673508276D+02 E-N=-9.880227371158D+02  KE= 2.458400075864D+02
 Orbital energies and kinetic energies (alpha):
                                 1                 2
  17         O                -0.413074          1.067539
  18         O                -0.372357          1.423538
  19         O                -0.299651          1.254171
  20         O                -0.273686          1.129594
  21         O                -0.267642          1.844411
  22         V                -0.018729          1.523901
  23         V                -0.005217          1.367840
  24         V                 0.107705          0.932085
  25         V                 0.154422          0.961031
  26         V                 0.156408          1.757715
 Total kinetic energy from orbitals= 2.458280169912D+02
 No NMR shielding tensors so no spin-rotation constants.
 Leave Link  601 at Wed Jun 15 23:33:59 2022, MaxMem=  1342177280 cpu:               0.5 elap:               0.2
 (Enter /gpfs1/apps/software/Gaussian16/AVX/g16/l9999.exe)
 Electronic transition elements 
                 1             2             3             4             5 
      1  -0.247850D+03 -0.247849D+03 -0.247835D+03 -0.247821D+03 -0.247821D+03
      2   0.000000D+00  0.000000D+00  0.000000D+00  0.000000D+00  0.328017D-04
      3   0.000000D+00  0.000000D+00  0.000000D+00  0.000000D+00 -0.525159D-04
      4   0.000000D+00  0.000000D+00  0.000000D+00  0.000000D+00 -0.231284D+00
      5   0.000000D+00  0.000000D+00  0.000000D+00  0.000000D+00 -0.122233D-05
      6   0.000000D+00  0.000000D+00  0.000000D+00  0.000000D+00  0.000000D+00
      7   0.000000D+00  0.000000D+00  0.000000D+00  0.000000D+00  0.918310D-02
      8   0.000000D+00  0.000000D+00  0.000000D+00  0.000000D+00 -0.690937D+00
      9   0.000000D+00  0.000000D+00  0.000000D+00  0.000000D+00 -0.233390D-05
     10   0.000000D+00  0.000000D+00  0.000000D+00  0.000000D+00  0.185357D-04
     11   0.000000D+00  0.000000D+00  0.000000D+00  0.000000D+00 -0.336321D-05
     12   0.000000D+00  0.000000D+00  0.000000D+00  0.000000D+00 -0.147697D-04
     13   0.000000D+00  0.000000D+00  0.000000D+00  0.000000D+00  0.118589D-04
     14   0.000000D+00  0.000000D+00  0.000000D+00  0.000000D+00 -0.926208D-05
     15   0.000000D+00  0.000000D+00  0.000000D+00  0.000000D+00  0.000000D+00
     16   0.000000D+00  0.000000D+00  0.000000D+00  0.000000D+00 -0.406694D-01
                 6             7             8             9            10 
      1  -0.247815D+03 -0.247809D+03 -0.247794D+03 -0.247792D+03 -0.247756D+03
      2   0.000000D+00 -0.505488D-05  0.559903D+00  0.000000D+00  0.523507D-04
      3   0.000000D+00 -0.240702D-04  0.301582D-05  0.000000D+00 -0.419157D+00
      4   0.000000D+00  0.172918D-04  0.138024D-05  0.000000D+00 -0.343997D-04
      5   0.000000D+00  0.000000D+00 -0.227572D-01  0.000000D+00 -0.357345D-05
      6   0.000000D+00  0.269967D-05  0.000000D+00  0.000000D+00  0.544101D-01
      7   0.000000D+00 -0.345786D-05 -0.252944D-05  0.000000D+00  0.000000D+00
      8   0.000000D+00  0.521904D-04  0.502807D-04  0.000000D+00 -0.423386D-04
      9   0.000000D+00 -0.289476D-01  0.542831D-05  0.000000D+00 -0.205682D-04
     10   0.000000D+00 -0.296273D-04  0.177639D+00  0.000000D+00  0.417208D-04
     11   0.000000D+00  0.723251D-05 -0.119631D-05  0.000000D+00  0.127807D+00
     12   0.000000D+00  0.368139D-05  0.000000D+00  0.000000D+00 -0.152988D+00
     13   0.000000D+00 -0.154727D-05  0.135700D-05  0.000000D+00 -0.471292D-02
     14   0.000000D+00  0.000000D+00  0.156333D-01  0.000000D+00  0.884092D-05
     15   0.000000D+00 -0.993102D-02  0.428738D-05  0.000000D+00  0.112895D-04
     16   0.000000D+00  0.137228D-04  0.127540D-04  0.000000D+00 -0.560122D-05
                11            12            13            14            15 
      1  -0.247730D+03 -0.247720D+03 -0.247719D+03 -0.247718D+03 -0.247714D+03
      2   0.000000D+00  0.000000D+00  0.284125D-03  0.000000D+00 -0.210225D+01
      3   0.000000D+00  0.000000D+00 -0.225489D-03  0.000000D+00 -0.157240D-03
      4   0.000000D+00  0.000000D+00  0.127654D-04  0.000000D+00  0.396029D-04
      5   0.000000D+00  0.000000D+00 -0.334580D-04  0.000000D+00  0.231686D+00
      6   0.000000D+00  0.000000D+00  0.231681D-04  0.000000D+00  0.173911D-04
      7   0.000000D+00  0.000000D+00 -0.393559D-05  0.000000D+00 -0.418081D-05
      8   0.000000D+00  0.000000D+00  0.213838D-04  0.000000D+00 -0.627985D-05
      9   0.000000D+00  0.000000D+00 -0.158989D+00  0.000000D+00 -0.399094D-04
     10   0.000000D+00  0.000000D+00 -0.125798D-04  0.000000D+00 -0.392898D-01
     11   0.000000D+00  0.000000D+00 -0.392491D-04  0.000000D+00 -0.185276D-04
     12   0.000000D+00  0.000000D+00  0.288235D-04  0.000000D+00  0.181803D-04
     13   0.000000D+00  0.000000D+00  0.763249D-05  0.000000D+00  0.511814D-05
     14   0.000000D+00  0.000000D+00 -0.742835D-05  0.000000D+00  0.189929D-01
     15   0.000000D+00  0.000000D+00  0.435228D-02  0.000000D+00 -0.294068D-05
     16   0.000000D+00  0.000000D+00  0.458660D-05  0.000000D+00  0.491487D-05
                16            17            18            19            20 
      1  -0.247710D+03 -0.247710D+03 -0.247703D+03 -0.247679D+03 -0.247678D+03
      2   0.000000D+00  0.144276D-03  0.228397D-03  0.456100D-04  0.954188D-05
      3   0.000000D+00 -0.210465D+01  0.118144D-03 -0.686583D-04 -0.123025D-03
      4   0.000000D+00  0.505753D-04  0.184269D+00  0.160413D-02 -0.212774D-05
      5   0.000000D+00 -0.143395D-04 -0.328612D-04 -0.949103D-05 -0.409228D-05
      6   0.000000D+00  0.204508D+00 -0.130716D-04  0.107814D-04  0.127125D-04
      7   0.000000D+00 -0.108703D-04 -0.443166D-01 -0.255742D-01  0.000000D+00
      8   0.000000D+00  0.329491D-04  0.334383D+00 -0.124949D+01 -0.106082D-03
      9   0.000000D+00  0.191174D-04  0.270703D-04 -0.639310D-04  0.525389D+00
     10   0.000000D+00 -0.111325D-04 -0.147157D-04  0.233661D-04 -0.230125D-04
     11   0.000000D+00 -0.327985D+00  0.593858D-05 -0.280710D-04  0.280113D-03
     12   0.000000D+00  0.368547D+00 -0.257344D-04  0.690415D-05 -0.170419D-03
     13   0.000000D+00  0.320271D-01  0.214160D-05  0.113834D-04 -0.175904D-04
     14   0.000000D+00 -0.218425D-04  0.134027D-05 -0.151665D-05  0.980608D-05
     15   0.000000D+00  0.994707D-05 -0.340459D-05  0.160284D-04 -0.209342D+00
     16   0.000000D+00  0.195942D-04  0.268358D-01 -0.204673D+00 -0.283332D-04
 Unable to Open any file for archive entry.
 1\1\GINC-KENNEDY56\SP\RPBE1PBE TDA-FC\6-31G(d,p)\C5H5N1\OSL\15-Jun-202
 2\0\\#p TDA=(50-50, nstates=10) PBE1PBE/6-31G(d,p) SCRF=(Solvent=Tolue
 ne) EmpiricalDispersion=(GD3BJ) Symmetry=(Tight) Population=(Regular) 
 Density=(Current) 6D 10F GFInput\\Pyridine_Excited_States_TDA_10_Singl
 ets_10_Triplets_PBE1PBE__GD3BJ__Toluene_6_31G_d_p_\\0,1\C,0,-1.13866,-
 0.71995,0.00002\C,0,-1.1954,0.67093,-0.00002\C,0,-0.00003,1.38179,-0.0
 0002\C,0,1.19537,0.67097,-0.00002\C,0,1.13869,-0.71991,-0.00003\N,0,0.
 00002,-1.41721,0.00006\H,0,-2.05707,-1.30463,0.00004\H,0,-2.15405,1.17
 942,-0.00004\H,0,-0.00004,2.46782,-0.00005\H,0,2.154,1.17951,-0.00002\
 H,0,2.05711,-1.30456,0.00004\\Version=ES64L-G16RevC.01\State=1-A\HF=-2
 48.0069601\RMSD=2.874e-09\Dipole=-0.0000038,-0.1749898,-0.0004067\Quad
 rupole=3.2856608,0.975031,-4.2606918,0.0000984,0.0000853,0.0019707\PG=
 C01 [X(C5H5N1)]\\@
 The archive entry for this job was punched.


 "MATHEMATICS IS THE ART OF GIVING THE SAME NAME
 TO DIFFERENT THINGS."
                    - H. POINCARE
 Job cpu time:       0 days  0 hours 16 minutes 44.2 seconds.
 Elapsed time:       0 days  0 hours  4 minutes 13.9 seconds.
 File lengths (MBytes):  RWF=    219 Int=      0 D2E=      0 Chk=     12 Scr=      2
 Normal termination of Gaussian 16 at Wed Jun 15 23:33:59 2022.
