 Entering Gaussian System, Link 0=g16
 Input=/gpfs1/home/osl/test/Naphthalene/Gaussian 16 Excited States TDA 10 Singlets 10 Triplets PBE1PBE (GD3BJ) Toluene 6-31G(d,p)/Input/Naphthalene.com
 Output=/gpfs1/home/osl/test/Naphthalene/Gaussian 16 Excited States TDA 10 Singlets 10 Triplets PBE1PBE (GD3BJ) Toluene 6-31G(d,p)/Output/Naphthalene.log
 Initial command:
 /gpfs1/apps/software/Gaussian16/AVX/g16/l1.exe "/scratch/tmp/osl/fdf49eca5f0e483b9f90f004a4ebc8bb/Gau-57362.inp" -scrdir="/scratch/tmp/osl/fdf49eca5f0e483b9f90f004a4ebc8bb/"
 Entering Link 1 = /gpfs1/apps/software/Gaussian16/AVX/g16/l1.exe PID=     57363.
  
 Copyright (c) 1988-2019, Gaussian, Inc.  All Rights Reserved.
  
 This is part of the Gaussian(R) 16 program.  It is based on
 the Gaussian(R) 09 system (copyright 2009, Gaussian, Inc.),
 the Gaussian(R) 03 system (copyright 2003, Gaussian, Inc.),
 the Gaussian(R) 98 system (copyright 1998, Gaussian, Inc.),
 the Gaussian(R) 94 system (copyright 1995, Gaussian, Inc.),
 the Gaussian 92(TM) system (copyright 1992, Gaussian, Inc.),
 the Gaussian 90(TM) system (copyright 1990, Gaussian, Inc.),
 the Gaussian 88(TM) system (copyright 1988, Gaussian, Inc.),
 the Gaussian 86(TM) system (copyright 1986, Carnegie Mellon
 University), and the Gaussian 82(TM) system (copyright 1983,
 Carnegie Mellon University). Gaussian is a federally registered
 trademark of Gaussian, Inc.
  
 This software contains proprietary and confidential information,
 including trade secrets, belonging to Gaussian, Inc.
  
 This software is provided under written license and may be
 used, copied, transmitted, or stored only in accord with that
 written license.
  
 The following legend is applicable only to US Government
 contracts under FAR:
  
                    RESTRICTED RIGHTS LEGEND
  
 Use, reproduction and disclosure by the US Government is
 subject to restrictions as set forth in subparagraphs (a)
 and (c) of the Commercial Computer Software - Restricted
 Rights clause in FAR 52.227-19.
  
 Gaussian, Inc.
 340 Quinnipiac St., Bldg. 40, Wallingford CT 06492
  
  
 ---------------------------------------------------------------
 Warning -- This program may not be used in any manner that
 competes with the business of Gaussian, Inc. or will provide
 assistance to any competitor of Gaussian, Inc.  The licensee
 of this program is prohibited from giving any competitor of
 Gaussian, Inc. access to this program.  By using this program,
 the user acknowledges that Gaussian, Inc. is engaged in the
 business of creating and licensing software in the field of
 computational chemistry and represents and warrants to the
 licensee that it is not a competitor of Gaussian, Inc. and that
 it will not use this program in any manner prohibited above.
 ---------------------------------------------------------------
  

 Cite this work as:
 Gaussian 16, Revision C.01,
 M. J. Frisch, G. W. Trucks, H. B. Schlegel, G. E. Scuseria, 
 M. A. Robb, J. R. Cheeseman, G. Scalmani, V. Barone, 
 G. A. Petersson, H. Nakatsuji, X. Li, M. Caricato, A. V. Marenich, 
 J. Bloino, B. G. Janesko, R. Gomperts, B. Mennucci, H. P. Hratchian, 
 J. V. Ortiz, A. F. Izmaylov, J. L. Sonnenberg, D. Williams-Young, 
 F. Ding, F. Lipparini, F. Egidi, J. Goings, B. Peng, A. Petrone, 
 T. Henderson, D. Ranasinghe, V. G. Zakrzewski, J. Gao, N. Rega, 
 G. Zheng, W. Liang, M. Hada, M. Ehara, K. Toyota, R. Fukuda, 
 J. Hasegawa, M. Ishida, T. Nakajima, Y. Honda, O. Kitao, H. Nakai, 
 T. Vreven, K. Throssell, J. A. Montgomery, Jr., J. E. Peralta, 
 F. Ogliaro, M. J. Bearpark, J. J. Heyd, E. N. Brothers, K. N. Kudin, 
 V. N. Staroverov, T. A. Keith, R. Kobayashi, J. Normand, 
 K. Raghavachari, A. P. Rendell, J. C. Burant, S. S. Iyengar, 
 J. Tomasi, M. Cossi, J. M. Millam, M. Klene, C. Adamo, R. Cammi, 
 J. W. Ochterski, R. L. Martin, K. Morokuma, O. Farkas, 
 J. B. Foresman, and D. J. Fox, Gaussian, Inc., Wallingford CT, 2019.
 
 ******************************************
 Gaussian 16:  ES64L-G16RevC.01  3-Jul-2019
                 7-Jun-2022 
 ******************************************
 %Chk="Naphthalene.chk"
 %Rwf="Naphthalene.rwf"
 %NProcShared=4
 Will use up to    4 processors via shared memory.
 %Mem=10GB
 ----------------------------------------------------------------------
 #p TDA=(50-50, nstates=10) PBE1PBE/6-31G(d,p) SCRF=(Solvent=Toluene) E
 mpiricalDispersion=(GD3BJ) Symmetry=(Tight) Population=(Regular) Densi
 ty=(Current) 6D 10F GFInput
 ----------------------------------------------------------------------
 1/30=1,38=1,172=1/1;
 2/12=2,40=1/2;
 3/5=1,6=6,7=101,8=22,11=9,24=10,25=1,30=1,70=2201,71=1,72=13,74=-13,124=41/1,2,3,8;
 4//1;
 5/5=2,38=5,53=13/2;
 8/6=1,10=2,108=10/1;
 9/15=1,41=10,42=1,48=2/14;
 10/5=4,13=10/2;
 6/22=-1/1;
 99/5=1,9=1/99;
 Leave Link    1 at Tue Jun  7 16:43:46 2022, MaxMem=  1342177280 cpu:               0.4 elap:               0.1
 (Enter /gpfs1/apps/software/Gaussian16/AVX/g16/l101.exe)
 ----------------------------------------------------------------------
 Naphthalene_Excited_States_TDA_10_Singlets_10_Triplets_PBE1PBE__GD3BJ_
 _Toluene_6_31G_d_p_
 ----------------------------------------------------------------------
 Symbolic Z-matrix:
 Charge =  0 Multiplicity = 1
 C                    -1.24046  -1.39914   0. 
 C                    -2.426    -0.70664   0. 
 C                    -2.426     0.70664   0. 
 C                    -1.24046   1.39914   0. 
 C                     0.        0.71423   0. 
 C                     0.       -0.71423   0. 
 C                     1.24046  -1.39914   0. 
 C                     1.24046   1.39914   0. 
 C                     2.426     0.70664   0. 
 C                     2.426    -0.70664   0. 
 H                    -1.2367   -2.4862    0. 
 H                    -3.3697   -1.24397   0. 
 H                    -3.3697    1.24397   0. 
 H                    -1.2367    2.4862    0. 
 H                     1.2367   -2.4862    0. 
 H                     1.2367    2.4862    0. 
 H                     3.3697    1.24397   0. 
 H                     3.3697   -1.24397   0. 
 
 ITRead=  0  0  0  0  0  0  0  0  0  0  0  0  0  0  0  0  0  0
 MicOpt= -1 -1 -1 -1 -1 -1 -1 -1 -1 -1 -1 -1 -1 -1 -1 -1 -1 -1
 NAtoms=     18 NQM=       18 NQMF=       0 NMMI=      0 NMMIF=      0
                NMic=       0 NMicF=      0.
                    Isotopes and Nuclear Properties:
 (Nuclear quadrupole moments (NQMom) in fm**2, nuclear magnetic moments (NMagM)
  in nuclear magnetons)

  Atom         1           2           3           4           5           6           7           8           9          10
 IAtWgt=          12          12          12          12          12          12          12          12          12          12
 AtmWgt=  12.0000000  12.0000000  12.0000000  12.0000000  12.0000000  12.0000000  12.0000000  12.0000000  12.0000000  12.0000000
 NucSpn=           0           0           0           0           0           0           0           0           0           0
 AtZEff=  -0.0000000  -0.0000000  -0.0000000  -0.0000000  -0.0000000  -0.0000000  -0.0000000  -0.0000000  -0.0000000  -0.0000000
 NQMom=    0.0000000   0.0000000   0.0000000   0.0000000   0.0000000   0.0000000   0.0000000   0.0000000   0.0000000   0.0000000
 NMagM=    0.0000000   0.0000000   0.0000000   0.0000000   0.0000000   0.0000000   0.0000000   0.0000000   0.0000000   0.0000000
 AtZNuc=   6.0000000   6.0000000   6.0000000   6.0000000   6.0000000   6.0000000   6.0000000   6.0000000   6.0000000   6.0000000

  Atom        11          12          13          14          15          16          17          18
 IAtWgt=           1           1           1           1           1           1           1           1
 AtmWgt=   1.0078250   1.0078250   1.0078250   1.0078250   1.0078250   1.0078250   1.0078250   1.0078250
 NucSpn=           1           1           1           1           1           1           1           1
 AtZEff=  -0.0000000  -0.0000000  -0.0000000  -0.0000000  -0.0000000  -0.0000000  -0.0000000  -0.0000000
 NQMom=    0.0000000   0.0000000   0.0000000   0.0000000   0.0000000   0.0000000   0.0000000   0.0000000
 NMagM=    2.7928460   2.7928460   2.7928460   2.7928460   2.7928460   2.7928460   2.7928460   2.7928460
 AtZNuc=   1.0000000   1.0000000   1.0000000   1.0000000   1.0000000   1.0000000   1.0000000   1.0000000
 Leave Link  101 at Tue Jun  7 16:43:47 2022, MaxMem=  1342177280 cpu:               0.8 elap:               0.2
 (Enter /gpfs1/apps/software/Gaussian16/AVX/g16/l202.exe)
                          Input orientation:                          
 ---------------------------------------------------------------------
 Center     Atomic      Atomic             Coordinates (Angstroms)
 Number     Number       Type             X           Y           Z
 ---------------------------------------------------------------------
      1          6           0       -1.240460   -1.399140    0.000000
      2          6           0       -2.426000   -0.706640    0.000000
      3          6           0       -2.426000    0.706640    0.000000
      4          6           0       -1.240460    1.399140    0.000000
      5          6           0        0.000000    0.714230    0.000000
      6          6           0        0.000000   -0.714230    0.000000
      7          6           0        1.240460   -1.399140    0.000000
      8          6           0        1.240460    1.399140    0.000000
      9          6           0        2.426000    0.706640    0.000000
     10          6           0        2.426000   -0.706640    0.000000
     11          1           0       -1.236700   -2.486200    0.000000
     12          1           0       -3.369700   -1.243970    0.000000
     13          1           0       -3.369700    1.243970    0.000000
     14          1           0       -1.236700    2.486200    0.000000
     15          1           0        1.236700   -2.486200    0.000000
     16          1           0        1.236700    2.486200    0.000000
     17          1           0        3.369700    1.243970    0.000000
     18          1           0        3.369700   -1.243970    0.000000
 ---------------------------------------------------------------------
                    Distance matrix (angstroms):
                    1          2          3          4          5
     1  C    0.000000
     2  C    1.372975   0.000000
     3  C    2.416571   1.413280   0.000000
     4  C    2.798280   2.416571   1.372975   0.000000
     5  C    2.450525   2.811467   2.426012   1.416984   0.000000
     6  C    1.416984   2.426012   2.811467   2.450525   1.428460
     7  C    2.480920   3.731285   4.228148   3.739697   2.450525
     8  C    3.739697   4.228148   3.731285   2.480920   1.416984
     9  C    4.228148   5.053639   4.852000   3.731285   2.426012
    10  C    3.731285   4.852000   5.053639   4.228148   2.811467
    11  H    1.087067   2.140390   3.407149   3.885342   3.431061
    12  H    2.134887   1.085953   2.166898   3.394067   3.897361
    13  H    3.394067   2.166898   1.085953   2.134887   3.411085
    14  H    3.885342   3.407149   2.140390   1.087067   2.160857
    15  H    2.705184   4.072125   4.858971   4.607840   3.431061
    16  H    4.607840   4.858971   4.072125   2.705184   2.160857
    17  H    5.314095   6.115147   5.820555   4.612771   3.411085
    18  H    4.612771   5.820555   6.115147   5.314095   3.897361
                    6          7          8          9         10
     6  C    0.000000
     7  C    1.416984   0.000000
     8  C    2.450525   2.798280   0.000000
     9  C    2.811467   2.416571   1.372975   0.000000
    10  C    2.426012   1.372975   2.416571   1.413280   0.000000
    11  H    2.160857   2.705184   4.607840   4.858971   4.072125
    12  H    3.411085   4.612771   5.314095   6.115147   5.820555
    13  H    3.897361   5.314095   4.612771   5.820555   6.115147
    14  H    3.431061   4.607840   2.705184   4.072125   4.858971
    15  H    2.160857   1.087067   3.885342   3.407149   2.140390
    16  H    3.431061   3.885342   1.087067   2.140390   3.407149
    17  H    3.897361   3.394067   2.134887   1.085953   2.166898
    18  H    3.411085   2.134887   3.394067   2.166898   1.085953
                   11         12         13         14         15
    11  H    0.000000
    12  H    2.468365   0.000000
    13  H    4.296959   2.487940   0.000000
    14  H    4.972400   4.296959   2.468365   0.000000
    15  H    2.473400   4.770960   5.927317   5.553600   0.000000
    16  H    5.553600   5.927317   4.770960   2.473400   4.972400
    17  H    5.927317   7.183965   6.739400   4.770960   4.296959
    18  H    4.770960   6.739400   7.183965   5.927317   2.468365
                   16         17         18
    16  H    0.000000
    17  H    2.468365   0.000000
    18  H    4.296959   2.487940   0.000000
 Stoichiometry    C10H8
 Framework group  D2H[C2"(C.C),SG(C8H8)]
 Deg. of freedom     9
 Full point group                 D2H     NOp   8
 Largest Abelian subgroup         D2H     NOp   8
 Largest concise Abelian subgroup D2      NOp   4
                         Standard orientation:                         
 ---------------------------------------------------------------------
 Center     Atomic      Atomic             Coordinates (Angstroms)
 Number     Number       Type             X           Y           Z
 ---------------------------------------------------------------------
      1          6           0        0.000000    1.240460    1.399140
      2          6           0        0.000000    2.426000    0.706640
      3          6           0        0.000000    2.426000   -0.706640
      4          6           0        0.000000    1.240460   -1.399140
      5          6           0       -0.000000    0.000000   -0.714230
      6          6           0       -0.000000    0.000000    0.714230
      7          6           0       -0.000000   -1.240460    1.399140
      8          6           0       -0.000000   -1.240460   -1.399140
      9          6           0       -0.000000   -2.426000   -0.706640
     10          6           0       -0.000000   -2.426000    0.706640
     11          1           0        0.000000    1.236700    2.486200
     12          1           0        0.000000    3.369700    1.243970
     13          1           0        0.000000    3.369700   -1.243970
     14          1           0        0.000000    1.236700   -2.486200
     15          1           0       -0.000000   -1.236700    2.486200
     16          1           0       -0.000000   -1.236700   -2.486200
     17          1           0       -0.000000   -3.369700   -1.243970
     18          1           0       -0.000000   -3.369700    1.243970
 ---------------------------------------------------------------------
 Rotational constants (GHZ):           3.1325350           1.2377551           0.8871977
 Leave Link  202 at Tue Jun  7 16:43:47 2022, MaxMem=  1342177280 cpu:               0.0 elap:               0.0
 (Enter /gpfs1/apps/software/Gaussian16/AVX/g16/l301.exe)
 Standard basis: 6-31G(d,p) (6D, 10F)
 Ernie: Thresh=  0.10000D-02 Tol=  0.10000D-05 Strict=F.
 AO basis set in the form of general basis input (Overlap normalization):
      1 0
 S   6 1.00       0.000000000000
      0.3047524880D+04  0.1834737132D-02
      0.4573695180D+03  0.1403732281D-01
      0.1039486850D+03  0.6884262226D-01
      0.2921015530D+02  0.2321844432D+00
      0.9286662960D+01  0.4679413484D+00
      0.3163926960D+01  0.3623119853D+00
 SP   3 1.00       0.000000000000
      0.7868272350D+01 -0.1193324198D+00  0.6899906659D-01
      0.1881288540D+01 -0.1608541517D+00  0.3164239610D+00
      0.5442492580D+00  0.1143456438D+01  0.7443082909D+00
 SP   1 1.00       0.000000000000
      0.1687144782D+00  0.1000000000D+01  0.1000000000D+01
 D   1 1.00       0.000000000000
      0.8000000000D+00  0.1000000000D+01
 ****
      2 0
 S   6 1.00       0.000000000000
      0.3047524880D+04  0.1834737132D-02
      0.4573695180D+03  0.1403732281D-01
      0.1039486850D+03  0.6884262226D-01
      0.2921015530D+02  0.2321844432D+00
      0.9286662960D+01  0.4679413484D+00
      0.3163926960D+01  0.3623119853D+00
 SP   3 1.00       0.000000000000
      0.7868272350D+01 -0.1193324198D+00  0.6899906659D-01
      0.1881288540D+01 -0.1608541517D+00  0.3164239610D+00
      0.5442492580D+00  0.1143456438D+01  0.7443082909D+00
 SP   1 1.00       0.000000000000
      0.1687144782D+00  0.1000000000D+01  0.1000000000D+01
 D   1 1.00       0.000000000000
      0.8000000000D+00  0.1000000000D+01
 ****
      3 0
 S   6 1.00       0.000000000000
      0.3047524880D+04  0.1834737132D-02
      0.4573695180D+03  0.1403732281D-01
      0.1039486850D+03  0.6884262226D-01
      0.2921015530D+02  0.2321844432D+00
      0.9286662960D+01  0.4679413484D+00
      0.3163926960D+01  0.3623119853D+00
 SP   3 1.00       0.000000000000
      0.7868272350D+01 -0.1193324198D+00  0.6899906659D-01
      0.1881288540D+01 -0.1608541517D+00  0.3164239610D+00
      0.5442492580D+00  0.1143456438D+01  0.7443082909D+00
 SP   1 1.00       0.000000000000
      0.1687144782D+00  0.1000000000D+01  0.1000000000D+01
 D   1 1.00       0.000000000000
      0.8000000000D+00  0.1000000000D+01
 ****
      4 0
 S   6 1.00       0.000000000000
      0.3047524880D+04  0.1834737132D-02
      0.4573695180D+03  0.1403732281D-01
      0.1039486850D+03  0.6884262226D-01
      0.2921015530D+02  0.2321844432D+00
      0.9286662960D+01  0.4679413484D+00
      0.3163926960D+01  0.3623119853D+00
 SP   3 1.00       0.000000000000
      0.7868272350D+01 -0.1193324198D+00  0.6899906659D-01
      0.1881288540D+01 -0.1608541517D+00  0.3164239610D+00
      0.5442492580D+00  0.1143456438D+01  0.7443082909D+00
 SP   1 1.00       0.000000000000
      0.1687144782D+00  0.1000000000D+01  0.1000000000D+01
 D   1 1.00       0.000000000000
      0.8000000000D+00  0.1000000000D+01
 ****
      5 0
 S   6 1.00       0.000000000000
      0.3047524880D+04  0.1834737132D-02
      0.4573695180D+03  0.1403732281D-01
      0.1039486850D+03  0.6884262226D-01
      0.2921015530D+02  0.2321844432D+00
      0.9286662960D+01  0.4679413484D+00
      0.3163926960D+01  0.3623119853D+00
 SP   3 1.00       0.000000000000
      0.7868272350D+01 -0.1193324198D+00  0.6899906659D-01
      0.1881288540D+01 -0.1608541517D+00  0.3164239610D+00
      0.5442492580D+00  0.1143456438D+01  0.7443082909D+00
 SP   1 1.00       0.000000000000
      0.1687144782D+00  0.1000000000D+01  0.1000000000D+01
 D   1 1.00       0.000000000000
      0.8000000000D+00  0.1000000000D+01
 ****
      6 0
 S   6 1.00       0.000000000000
      0.3047524880D+04  0.1834737132D-02
      0.4573695180D+03  0.1403732281D-01
      0.1039486850D+03  0.6884262226D-01
      0.2921015530D+02  0.2321844432D+00
      0.9286662960D+01  0.4679413484D+00
      0.3163926960D+01  0.3623119853D+00
 SP   3 1.00       0.000000000000
      0.7868272350D+01 -0.1193324198D+00  0.6899906659D-01
      0.1881288540D+01 -0.1608541517D+00  0.3164239610D+00
      0.5442492580D+00  0.1143456438D+01  0.7443082909D+00
 SP   1 1.00       0.000000000000
      0.1687144782D+00  0.1000000000D+01  0.1000000000D+01
 D   1 1.00       0.000000000000
      0.8000000000D+00  0.1000000000D+01
 ****
      7 0
 S   6 1.00       0.000000000000
      0.3047524880D+04  0.1834737132D-02
      0.4573695180D+03  0.1403732281D-01
      0.1039486850D+03  0.6884262226D-01
      0.2921015530D+02  0.2321844432D+00
      0.9286662960D+01  0.4679413484D+00
      0.3163926960D+01  0.3623119853D+00
 SP   3 1.00       0.000000000000
      0.7868272350D+01 -0.1193324198D+00  0.6899906659D-01
      0.1881288540D+01 -0.1608541517D+00  0.3164239610D+00
      0.5442492580D+00  0.1143456438D+01  0.7443082909D+00
 SP   1 1.00       0.000000000000
      0.1687144782D+00  0.1000000000D+01  0.1000000000D+01
 D   1 1.00       0.000000000000
      0.8000000000D+00  0.1000000000D+01
 ****
      8 0
 S   6 1.00       0.000000000000
      0.3047524880D+04  0.1834737132D-02
      0.4573695180D+03  0.1403732281D-01
      0.1039486850D+03  0.6884262226D-01
      0.2921015530D+02  0.2321844432D+00
      0.9286662960D+01  0.4679413484D+00
      0.3163926960D+01  0.3623119853D+00
 SP   3 1.00       0.000000000000
      0.7868272350D+01 -0.1193324198D+00  0.6899906659D-01
      0.1881288540D+01 -0.1608541517D+00  0.3164239610D+00
      0.5442492580D+00  0.1143456438D+01  0.7443082909D+00
 SP   1 1.00       0.000000000000
      0.1687144782D+00  0.1000000000D+01  0.1000000000D+01
 D   1 1.00       0.000000000000
      0.8000000000D+00  0.1000000000D+01
 ****
      9 0
 S   6 1.00       0.000000000000
      0.3047524880D+04  0.1834737132D-02
      0.4573695180D+03  0.1403732281D-01
      0.1039486850D+03  0.6884262226D-01
      0.2921015530D+02  0.2321844432D+00
      0.9286662960D+01  0.4679413484D+00
      0.3163926960D+01  0.3623119853D+00
 SP   3 1.00       0.000000000000
      0.7868272350D+01 -0.1193324198D+00  0.6899906659D-01
      0.1881288540D+01 -0.1608541517D+00  0.3164239610D+00
      0.5442492580D+00  0.1143456438D+01  0.7443082909D+00
 SP   1 1.00       0.000000000000
      0.1687144782D+00  0.1000000000D+01  0.1000000000D+01
 D   1 1.00       0.000000000000
      0.8000000000D+00  0.1000000000D+01
 ****
     10 0
 S   6 1.00       0.000000000000
      0.3047524880D+04  0.1834737132D-02
      0.4573695180D+03  0.1403732281D-01
      0.1039486850D+03  0.6884262226D-01
      0.2921015530D+02  0.2321844432D+00
      0.9286662960D+01  0.4679413484D+00
      0.3163926960D+01  0.3623119853D+00
 SP   3 1.00       0.000000000000
      0.7868272350D+01 -0.1193324198D+00  0.6899906659D-01
      0.1881288540D+01 -0.1608541517D+00  0.3164239610D+00
      0.5442492580D+00  0.1143456438D+01  0.7443082909D+00
 SP   1 1.00       0.000000000000
      0.1687144782D+00  0.1000000000D+01  0.1000000000D+01
 D   1 1.00       0.000000000000
      0.8000000000D+00  0.1000000000D+01
 ****
     11 0
 S   3 1.00       0.000000000000
      0.1873113696D+02  0.3349460434D-01
      0.2825394365D+01  0.2347269535D+00
      0.6401216923D+00  0.8137573261D+00
 S   1 1.00       0.000000000000
      0.1612777588D+00  0.1000000000D+01
 P   1 1.00       0.000000000000
      0.1100000000D+01  0.1000000000D+01
 ****
     12 0
 S   3 1.00       0.000000000000
      0.1873113696D+02  0.3349460434D-01
      0.2825394365D+01  0.2347269535D+00
      0.6401216923D+00  0.8137573261D+00
 S   1 1.00       0.000000000000
      0.1612777588D+00  0.1000000000D+01
 P   1 1.00       0.000000000000
      0.1100000000D+01  0.1000000000D+01
 ****
     13 0
 S   3 1.00       0.000000000000
      0.1873113696D+02  0.3349460434D-01
      0.2825394365D+01  0.2347269535D+00
      0.6401216923D+00  0.8137573261D+00
 S   1 1.00       0.000000000000
      0.1612777588D+00  0.1000000000D+01
 P   1 1.00       0.000000000000
      0.1100000000D+01  0.1000000000D+01
 ****
     14 0
 S   3 1.00       0.000000000000
      0.1873113696D+02  0.3349460434D-01
      0.2825394365D+01  0.2347269535D+00
      0.6401216923D+00  0.8137573261D+00
 S   1 1.00       0.000000000000
      0.1612777588D+00  0.1000000000D+01
 P   1 1.00       0.000000000000
      0.1100000000D+01  0.1000000000D+01
 ****
     15 0
 S   3 1.00       0.000000000000
      0.1873113696D+02  0.3349460434D-01
      0.2825394365D+01  0.2347269535D+00
      0.6401216923D+00  0.8137573261D+00
 S   1 1.00       0.000000000000
      0.1612777588D+00  0.1000000000D+01
 P   1 1.00       0.000000000000
      0.1100000000D+01  0.1000000000D+01
 ****
     16 0
 S   3 1.00       0.000000000000
      0.1873113696D+02  0.3349460434D-01
      0.2825394365D+01  0.2347269535D+00
      0.6401216923D+00  0.8137573261D+00
 S   1 1.00       0.000000000000
      0.1612777588D+00  0.1000000000D+01
 P   1 1.00       0.000000000000
      0.1100000000D+01  0.1000000000D+01
 ****
     17 0
 S   3 1.00       0.000000000000
      0.1873113696D+02  0.3349460434D-01
      0.2825394365D+01  0.2347269535D+00
      0.6401216923D+00  0.8137573261D+00
 S   1 1.00       0.000000000000
      0.1612777588D+00  0.1000000000D+01
 P   1 1.00       0.000000000000
      0.1100000000D+01  0.1000000000D+01
 ****
     18 0
 S   3 1.00       0.000000000000
      0.1873113696D+02  0.3349460434D-01
      0.2825394365D+01  0.2347269535D+00
      0.6401216923D+00  0.8137573261D+00
 S   1 1.00       0.000000000000
      0.1612777588D+00  0.1000000000D+01
 P   1 1.00       0.000000000000
      0.1100000000D+01  0.1000000000D+01
 ****

 There are    38 symmetry adapted cartesian basis functions of AG  symmetry.
 There are    11 symmetry adapted cartesian basis functions of B1G symmetry.
 There are    13 symmetry adapted cartesian basis functions of B2G symmetry.
 There are    33 symmetry adapted cartesian basis functions of B3G symmetry.
 There are    11 symmetry adapted cartesian basis functions of AU  symmetry.
 There are    38 symmetry adapted cartesian basis functions of B1U symmetry.
 There are    33 symmetry adapted cartesian basis functions of B2U symmetry.
 There are    13 symmetry adapted cartesian basis functions of B3U symmetry.
 There are    38 symmetry adapted basis functions of AG  symmetry.
 There are    11 symmetry adapted basis functions of B1G symmetry.
 There are    13 symmetry adapted basis functions of B2G symmetry.
 There are    33 symmetry adapted basis functions of B3G symmetry.
 There are    11 symmetry adapted basis functions of AU  symmetry.
 There are    38 symmetry adapted basis functions of B1U symmetry.
 There are    33 symmetry adapted basis functions of B2U symmetry.
 There are    13 symmetry adapted basis functions of B3U symmetry.
   190 basis functions,   336 primitive gaussians,   190 cartesian basis functions
    34 alpha electrons       34 beta electrons
       nuclear repulsion energy       458.4330499695 Hartrees.
 IExCor= 1009 DFT=T Ex+Corr=PBE1PBE ExCW=0 ScaHFX=  0.250000
 ScaDFX=  0.750000  0.750000  1.000000  1.000000 ScalE2=  1.000000  1.000000
 IRadAn=      5 IRanWt=     -1 IRanGd=            0 ICorTp=0 IEmpDi=141
 NAtoms=   18 NActive=   18 NUniq=    5 SFac= 4.00D+00 NAtFMM=   60 NAOKFM=F Big=F
 Integral buffers will be    131072 words long.
 Regular integral format.
 Two-electron integral symmetry is turned on.
 R6Disp:  Grimme-D3(BJ) Dispersion energy=       -0.0185226351 Hartrees.
 Nuclear repulsion after empirical dispersion term =      458.4145273344 Hartrees.
 ------------------------------------------------------------------------------
 Polarizable Continuum Model (PCM)
 =================================
 Model                : PCM.
 Atomic radii         : UFF (Universal Force Field).
 Polarization charges : Total charges.
 Charge compensation  : None.
 Solution method      : On-the-fly selection.
 Cavity type          : Scaled VdW (van der Waals Surface) (Alpha=1.100).
 Cavity algorithm     : GePol (No added spheres)
                        Default sphere list used, NSphG=   18.
                        Lebedev-Laikov grids with approx.  5.0 points / Ang**2.
                        Smoothing algorithm: York/Karplus (Gamma=1.0000).
                        Polarization charges: spherical gaussians, with
                                              point-specific exponents (IZeta= 3).
                        Self-potential: point-specific (ISelfS= 7).
                        Self-field    : sphere-specific E.n sum rule (ISelfD= 2).
 1st derivatives      : Analytical E(r).r(x)/FMM algorithm (CHGder, D1EAlg=3).
                        Cavity 1st derivative terms included.
 Solvent              : Toluene, Eps=   2.374100 Eps(inf)=   2.238315
 ------------------------------------------------------------------------------
 Spheres list:
 ISph  on   Nord     Re0    Alpha      Xe            Ye            Ze
    1   C      1    1.9255  1.100      0.000000      1.240460      1.399140
    2   C      2    1.9255  1.100      0.000000      2.426000      0.706640
    3   C      3    1.9255  1.100      0.000000      2.426000     -0.706640
    4   C      4    1.9255  1.100      0.000000      1.240460     -1.399140
    5   C      5    1.9255  1.100     -0.000000      0.000000     -0.714230
    6   C      6    1.9255  1.100     -0.000000      0.000000      0.714230
    7   C      7    1.9255  1.100     -0.000000     -1.240460      1.399140
    8   C      8    1.9255  1.100     -0.000000     -1.240460     -1.399140
    9   C      9    1.9255  1.100     -0.000000     -2.426000     -0.706640
   10   C     10    1.9255  1.100     -0.000000     -2.426000      0.706640
   11   H     11    1.4430  1.100      0.000000      1.236700      2.486200
   12   H     12    1.4430  1.100      0.000000      3.369700      1.243970
   13   H     13    1.4430  1.100      0.000000      3.369700     -1.243970
   14   H     14    1.4430  1.100      0.000000      1.236700     -2.486200
   15   H     15    1.4430  1.100     -0.000000     -1.236700      2.486200
   16   H     16    1.4430  1.100     -0.000000     -1.236700     -2.486200
   17   H     17    1.4430  1.100     -0.000000     -3.369700     -1.243970
   18   H     18    1.4430  1.100     -0.000000     -3.369700      1.243970
 ------------------------------------------------------------------------------
 GePol: Number of generator spheres                  =      18
 GePol: Total number of spheres                      =      18
 GePol: Number of exposed spheres                    =      18 (100.00%)
 GePol: Number of points                             =    1468
 GePol: Average weight of points                     =       0.13
 GePol: Minimum weight of points                     =   0.28D-07
 GePol: Maximum weight of points                     =    0.20577
 GePol: Number of points with low weight             =      84
 GePol: Fraction of low-weight points (<1% of avg)   =       5.72%
 GePol: Cavity surface area                          =    195.522 Ang**2
 GePol: Cavity volume                                =    198.173 Ang**3
 Leave Link  301 at Tue Jun  7 16:43:47 2022, MaxMem=  1342177280 cpu:               0.2 elap:               0.1
 (Enter /gpfs1/apps/software/Gaussian16/AVX/g16/l302.exe)
 NPDir=0 NMtPBC=     1 NCelOv=     1 NCel=       1 NClECP=     1 NCelD=      1
         NCelK=      1 NCelE2=     1 NClLst=     1 CellRange=     0.0.
 One-electron integrals computed using PRISM.
 One-electron integral symmetry used in STVInt
 NBasis=   190 RedAO= T EigKep=  2.99D-04  NBF=    38    11    13    33    11    38    33    13
 NBsUse=   190 1.00D-06 EigRej= -1.00D+00 NBFU=    38    11    13    33    11    38    33    13
 Precomputing XC quadrature grid using
 IXCGrd= 4 IRadAn=           5 IRanWt=          -1 IRanGd=           0 AccXCQ= 0.00D+00.
 Generated NRdTot=       0 NPtTot=           0 NUsed=           0 NTot=          32
 NSgBfM=   190   190   190   190   190 MxSgAt=    18 MxSgA2=    18.
 Leave Link  302 at Tue Jun  7 16:43:48 2022, MaxMem=  1342177280 cpu:               1.4 elap:               0.4
 (Enter /gpfs1/apps/software/Gaussian16/AVX/g16/l303.exe)
 DipDrv:  MaxL=1.
 Leave Link  303 at Tue Jun  7 16:43:49 2022, MaxMem=  1342177280 cpu:               0.2 elap:               0.0
 (Enter /gpfs1/apps/software/Gaussian16/AVX/g16/l308.exe)
 Leave Link  308 at Tue Jun  7 16:43:51 2022, MaxMem=  1342177280 cpu:               0.2 elap:               0.1
 (Enter /gpfs1/apps/software/Gaussian16/AVX/g16/l401.exe)
 ExpMin= 1.61D-01 ExpMax= 3.05D+03 ExpMxC= 4.57D+02 IAcc=3 IRadAn=         5 AccDes= 0.00D+00
 Harris functional with IExCor= 1009 and IRadAn=       5 diagonalized for initial guess.
 HarFok:  IExCor= 1009 AccDes= 0.00D+00 IRadAn=         5 IDoV= 1 UseB2=F ITyADJ=14
 ICtDFT=  3500011 ScaDFX=  1.000000  1.000000  1.000000  1.000000
 FoFCou: FMM=F IPFlag=           0 FMFlag=      100000 FMFlg1=           0
         NFxFlg=           0 DoJE=T BraDBF=F KetDBF=T FulRan=T
         wScrn=  0.000000 ICntrl=       500 IOpCl=  0 I1Cent=   200000004 NGrid=           0
         NMat0=    1 NMatS0=      1 NMatT0=    0 NMatD0=    1 NMtDS0=    0 NMtDT0=    0
 Petite list used in FoFCou.
 Harris En= -385.596418221819    
 JPrj=0 DoOrth=F DoCkMO=F.
 Initial guess orbital symmetries:
       Occupied  (AG) (B2U) (B1U) (B3G) (AG) (B2U) (B1U) (B3G)
                 (AG) (B1U) (AG) (B2U) (B1U) (AG) (B3G) (B2U) (B1U)
                 (AG) (B2U) (B3G) (AG) (AG) (B2U) (B1U) (B3G) (B1U)
                 (B3U) (B2U) (B3G) (AG) (B1G) (B2G) (B3U) (AU)
       Virtual   (B1G) (B2G) (B3U) (AU) (AG) (B2U) (B1U) (B2G)
                 (B1U) (B2U) (AG) (B3G) (B1U) (B3G) (AG) (B1U)
                 (B3G) (B2U) (AG) (B2U) (AG) (B1U) (B3G) (B1U)
                 (B2U) (B3U) (B1G) (AG) (B3G) (B2U) (B2G) (B1U)
                 (B3G) (AG) (B2U) (B3U) (B1U) (AG) (AU) (B2G) (B3U)
                 (B1G) (AU) (B1U) (B3G) (AG) (B1U) (B2U) (B2G)
                 (B3G) (AG) (B2U) (B1U) (AG) (B3G) (B2U) (B3G)
                 (B2U) (B1U) (AG) (B1U) (B3G) (B2U) (B3G) (B3U)
                 (B1G) (B1U) (B1G) (AG) (AU) (B3U) (B1G) (B2G)
                 (AU) (B3U) (AG) (B2U) (B3G) (B1U) (AG) (B2U) (AG)
                 (B2G) (AG) (B2U) (B3G) (B3U) (B1U) (B2U) (B1U)
                 (B3G) (AG) (B1U) (B2G) (AU) (B2U) (B1G) (B3G)
                 (AG) (B1U) (AU) (B2G) (B3U) (B3G) (B1G) (B2U)
                 (AG) (B3U) (B3G) (B1G) (B2U) (B2G) (B1U) (AG)
                 (AU) (B1U) (B2U) (B3U) (B3G) (AU) (AG) (B1G) (B1U)
                 (B2G) (B3G) (B2U) (B1U) (B2G) (AU) (AG) (B3G)
                 (B2U) (B1U) (AG) (B3G) (B1U) (AG) (B2U) (B3G)
                 (B1U) (B3G) (B1U) (B2U) (AG) (B1U) (B3G) (AG)
                 (B2U) (B1U) (AG) (B3G) (B2U) (B1U) (AG) (B3G)
                 (B1U)
 The electronic state of the initial guess is 1-AG.
 Leave Link  401 at Tue Jun  7 16:43:52 2022, MaxMem=  1342177280 cpu:               1.9 elap:               0.5
 (Enter /gpfs1/apps/software/Gaussian16/AVX/g16/l502.exe)
 Keep R1 ints in memory in symmetry-blocked form, NReq=186542383.
 FoFCou: FMM=F IPFlag=           0 FMFlag=           0 FMFlg1=           0
         NFxFlg=           0 DoJE=F BraDBF=F KetDBF=F FulRan=T
         wScrn=  0.000000 ICntrl=       600 IOpCl=  0 I1Cent=           0 NGrid=           0
         NMat0=    1 NMatS0=  18145 NMatT0=    0 NMatD0=    1 NMtDS0=    0 NMtDT0=    0
 Petite list used in FoFCou.
 Closed shell SCF:
 Using DIIS extrapolation, IDIIS=  1040.
 NGot=  1342177280 LenX=  1320190441 LenY=  1320153900
 Requested convergence on RMS density matrix=1.00D-08 within 128 cycles.
 Requested convergence on MAX density matrix=1.00D-06.
 Requested convergence on             energy=1.00D-06.
 No special actions if energy rises.

 Cycle   1  Pass 1  IDiag  1:
 Inv3:  Mode=1 IEnd=     6465072.
 Iteration    1 A*A^-1 deviation from unit magnitude is 5.77D-15 for   1450.
 Iteration    1 A*A^-1 deviation from orthogonality  is 3.44D-15 for   1466   1366.
 Iteration    1 A^-1*A deviation from unit magnitude is 5.77D-15 for   1450.
 Iteration    1 A^-1*A deviation from orthogonality  is 2.00D-15 for    864    492.
 E= -385.268461539706    
 DIIS: error= 4.44D-02 at cycle   1 NSaved=   1.
 NSaved= 1 IEnMin= 1 EnMin= -385.268461539706     IErMin= 1 ErrMin= 4.44D-02
 ErrMax= 4.44D-02  0.00D+00 EMaxC= 1.00D-01 BMatC= 1.79D-01 BMatP= 1.79D-01
 IDIUse=3 WtCom= 5.56D-01 WtEn= 4.44D-01
 Coeff-Com:  0.100D+01
 Coeff-En:   0.100D+01
 Coeff:      0.100D+01
 Gap=     0.191 Goal=   None    Shift=    0.000
 GapD=    0.191 DampG=1.000 DampE=0.500 DampFc=0.5000 IDamp=-1.
 Damping current iteration by 5.00D-01
 RMSDP=4.96D-03 MaxDP=8.06D-02              OVMax= 1.31D-01

 Cycle   2  Pass 1  IDiag  1:
 E= -385.369210879447     Delta-E=       -0.100749339741 Rises=F Damp=T
 DIIS: error= 1.03D-02 at cycle   2 NSaved=   2.
 NSaved= 2 IEnMin= 2 EnMin= -385.369210879447     IErMin= 2 ErrMin= 1.03D-02
 ErrMax= 1.03D-02  0.00D+00 EMaxC= 1.00D-01 BMatC= 1.21D-02 BMatP= 1.79D-01
 IDIUse=3 WtCom= 8.97D-01 WtEn= 1.03D-01
 Coeff-Com: -0.117D+00 0.112D+01
 Coeff-En:   0.000D+00 0.100D+01
 Coeff:     -0.105D+00 0.110D+01
 Gap=     0.192 Goal=   None    Shift=    0.000
 RMSDP=1.53D-03 MaxDP=2.84D-02 DE=-1.01D-01 OVMax= 6.85D-02

 Cycle   3  Pass 1  IDiag  1:
 E= -385.462087614322     Delta-E=       -0.092876734876 Rises=F Damp=F
 DIIS: error= 3.21D-03 at cycle   3 NSaved=   3.
 NSaved= 3 IEnMin= 3 EnMin= -385.462087614322     IErMin= 3 ErrMin= 3.21D-03
 ErrMax= 3.21D-03  0.00D+00 EMaxC= 1.00D-01 BMatC= 1.27D-03 BMatP= 1.21D-02
 IDIUse=3 WtCom= 9.68D-01 WtEn= 3.21D-02
 Coeff-Com: -0.629D-01 0.239D+00 0.823D+00
 Coeff-En:   0.000D+00 0.000D+00 0.100D+01
 Coeff:     -0.609D-01 0.232D+00 0.829D+00
 Gap=     0.191 Goal=   None    Shift=    0.000
 RMSDP=3.62D-04 MaxDP=6.91D-03 DE=-9.29D-02 OVMax= 8.68D-03

 Cycle   4  Pass 1  IDiag  1:
 E= -385.463005434615     Delta-E=       -0.000917820292 Rises=F Damp=F
 DIIS: error= 1.65D-03 at cycle   4 NSaved=   4.
 NSaved= 4 IEnMin= 4 EnMin= -385.463005434615     IErMin= 4 ErrMin= 1.65D-03
 ErrMax= 1.65D-03  0.00D+00 EMaxC= 1.00D-01 BMatC= 3.19D-04 BMatP= 1.27D-03
 IDIUse=3 WtCom= 9.83D-01 WtEn= 1.65D-02
 Coeff-Com: -0.245D-01 0.692D-01 0.383D+00 0.572D+00
 Coeff-En:   0.000D+00 0.000D+00 0.100D+00 0.900D+00
 Coeff:     -0.241D-01 0.681D-01 0.379D+00 0.577D+00
 Gap=     0.191 Goal=   None    Shift=    0.000
 RMSDP=1.14D-04 MaxDP=2.69D-03 DE=-9.18D-04 OVMax= 5.02D-03

 Cycle   5  Pass 1  IDiag  1:
 E= -385.463277855171     Delta-E=       -0.000272420557 Rises=F Damp=F
 DIIS: error= 3.91D-04 at cycle   5 NSaved=   5.
 NSaved= 5 IEnMin= 5 EnMin= -385.463277855171     IErMin= 5 ErrMin= 3.91D-04
 ErrMax= 3.91D-04  0.00D+00 EMaxC= 1.00D-01 BMatC= 2.59D-05 BMatP= 3.19D-04
 IDIUse=3 WtCom= 9.96D-01 WtEn= 3.91D-03
 Coeff-Com: -0.621D-02 0.127D-01 0.107D+00 0.277D+00 0.609D+00
 Coeff-En:   0.000D+00 0.000D+00 0.000D+00 0.000D+00 0.100D+01
 Coeff:     -0.619D-02 0.126D-01 0.107D+00 0.276D+00 0.611D+00
 Gap=     0.191 Goal=   None    Shift=    0.000
 RMSDP=2.37D-05 MaxDP=6.23D-04 DE=-2.72D-04 OVMax= 1.19D-03

 Cycle   6  Pass 1  IDiag  1:
 E= -385.463301897839     Delta-E=       -0.000024042668 Rises=F Damp=F
 DIIS: error= 3.28D-05 at cycle   6 NSaved=   6.
 NSaved= 6 IEnMin= 6 EnMin= -385.463301897839     IErMin= 6 ErrMin= 3.28D-05
 ErrMax= 3.28D-05  0.00D+00 EMaxC= 1.00D-01 BMatC= 9.96D-08 BMatP= 2.59D-05
 IDIUse=1 WtCom= 1.00D+00 WtEn= 0.00D+00
 Coeff-Com: -0.144D-02 0.264D-02 0.246D-01 0.680D-01 0.165D+00 0.741D+00
 Coeff:     -0.144D-02 0.264D-02 0.246D-01 0.680D-01 0.165D+00 0.741D+00
 Gap=     0.191 Goal=   None    Shift=    0.000
 RMSDP=3.07D-06 MaxDP=6.74D-05 DE=-2.40D-05 OVMax= 2.00D-04

 Cycle   7  Pass 1  IDiag  1:
 E= -385.463301914173     Delta-E=       -0.000000016334 Rises=F Damp=F
 DIIS: error= 3.06D-05 at cycle   7 NSaved=   7.
 NSaved= 7 IEnMin= 7 EnMin= -385.463301914173     IErMin= 7 ErrMin= 3.06D-05
 ErrMax= 3.06D-05  0.00D+00 EMaxC= 1.00D-01 BMatC= 8.17D-08 BMatP= 9.96D-08
 IDIUse=1 WtCom= 1.00D+00 WtEn= 0.00D+00
 Coeff-Com: -0.977D-04 0.222D-04 0.122D-02 0.622D-02 0.237D-01 0.484D+00
 Coeff-Com:  0.485D+00
 Coeff:     -0.977D-04 0.222D-04 0.122D-02 0.622D-02 0.237D-01 0.484D+00
 Coeff:      0.485D+00
 Gap=     0.191 Goal=   None    Shift=    0.000
 RMSDP=1.81D-06 MaxDP=3.84D-05 DE=-1.63D-08 OVMax= 1.13D-04

 Cycle   8  Pass 1  IDiag  1:
 E= -385.463302003762     Delta-E=       -0.000000089589 Rises=F Damp=F
 DIIS: error= 4.97D-06 at cycle   8 NSaved=   8.
 NSaved= 8 IEnMin= 8 EnMin= -385.463302003762     IErMin= 8 ErrMin= 4.97D-06
 ErrMax= 4.97D-06  0.00D+00 EMaxC= 1.00D-01 BMatC= 8.26D-10 BMatP= 8.17D-08
 IDIUse=1 WtCom= 1.00D+00 WtEn= 0.00D+00
 Coeff-Com:  0.576D-04-0.144D-03-0.125D-02-0.257D-02-0.452D-02 0.577D-01
 Coeff-Com:  0.128D+00 0.823D+00
 Coeff:      0.576D-04-0.144D-03-0.125D-02-0.257D-02-0.452D-02 0.577D-01
 Coeff:      0.128D+00 0.823D+00
 Gap=     0.191 Goal=   None    Shift=    0.000
 RMSDP=2.36D-07 MaxDP=3.69D-06 DE=-8.96D-08 OVMax= 2.02D-05

 Cycle   9  Pass 1  IDiag  1:
 E= -385.463302004820     Delta-E=       -0.000000001058 Rises=F Damp=F
 DIIS: error= 3.73D-07 at cycle   9 NSaved=   9.
 NSaved= 9 IEnMin= 9 EnMin= -385.463302004820     IErMin= 9 ErrMin= 3.73D-07
 ErrMax= 3.73D-07  0.00D+00 EMaxC= 1.00D-01 BMatC= 1.48D-11 BMatP= 8.26D-10
 IDIUse=1 WtCom= 1.00D+00 WtEn= 0.00D+00
 Coeff-Com:  0.112D-04-0.203D-04-0.245D-03-0.589D-03-0.149D-02-0.923D-02
 Coeff-Com:  0.469D-02 0.149D+00 0.858D+00
 Coeff:      0.112D-04-0.203D-04-0.245D-03-0.589D-03-0.149D-02-0.923D-02
 Coeff:      0.469D-02 0.149D+00 0.858D+00
 Gap=     0.191 Goal=   None    Shift=    0.000
 RMSDP=3.84D-08 MaxDP=5.82D-07 DE=-1.06D-09 OVMax= 2.31D-06

 Cycle  10  Pass 1  IDiag  1:
 E= -385.463302004844     Delta-E=       -0.000000000024 Rises=F Damp=F
 DIIS: error= 7.14D-08 at cycle  10 NSaved=  10.
 NSaved=10 IEnMin=10 EnMin= -385.463302004844     IErMin=10 ErrMin= 7.14D-08
 ErrMax= 7.14D-08  0.00D+00 EMaxC= 1.00D-01 BMatC= 1.69D-13 BMatP= 1.48D-11
 IDIUse=1 WtCom= 1.00D+00 WtEn= 0.00D+00
 Coeff-Com: -0.185D-05 0.444D-05 0.426D-04 0.874D-04 0.193D-03-0.956D-03
 Coeff-Com: -0.324D-02-0.208D-01-0.934D-01 0.112D+01
 Coeff:     -0.185D-05 0.444D-05 0.426D-04 0.874D-04 0.193D-03-0.956D-03
 Coeff:     -0.324D-02-0.208D-01-0.934D-01 0.112D+01
 Gap=     0.191 Goal=   None    Shift=    0.000
 RMSDP=7.53D-09 MaxDP=2.00D-07 DE=-2.39D-11 OVMax= 7.61D-07

 Error on total polarization charges =  0.00536
 SCF Done:  E(RPBE1PBE) =  -385.463302005     A.U. after   10 cycles
            NFock= 10  Conv=0.75D-08     -V/T= 2.0090
 KE= 3.820333909680D+02 PE=-1.809898199651D+03 EE= 5.839869793438D+02
 Leave Link  502 at Tue Jun  7 16:44:04 2022, MaxMem=  1342177280 cpu:              47.7 elap:              12.4
 (Enter /gpfs1/apps/software/Gaussian16/AVX/g16/l801.exe)
 DoSCS=F DFT=T ScalE2(SS,OS)=  1.000000  1.000000
 ExpMin= 1.61D-01 ExpMax= 3.05D+03 ExpMxC= 4.57D+02 IAcc=3 IRadAn=         5 AccDes= 0.00D+00
 HarFok:  IExCor=  205 AccDes= 0.00D+00 IRadAn=         5 IDoV=-2 UseB2=F ITyADJ=14
 ICtDFT= 12500011 ScaDFX=  1.000000  1.000000  1.000000  1.000000
 Largest valence mixing into a core orbital is  6.82D-05
 Largest core mixing into a valence orbital is  1.52D-05
 Range of M.O.s used for correlation:    11   190
 NBasis=   190 NAE=    34 NBE=    34 NFC=    10 NFV=     0
 NROrb=    180 NOA=    24 NOB=    24 NVA=   156 NVB=   156

 **** Warning!!: The largest alpha MO coefficient is  0.12125076D+02

 Leave Link  801 at Tue Jun  7 16:44:05 2022, MaxMem=  1342177280 cpu:               1.3 elap:               0.5
 (Enter /gpfs1/apps/software/Gaussian16/AVX/g16/l914.exe)
 RHF ground state
 Keep R1, R2, and R3 ints in memory in symmetry-blocked form, NReq=287960571.
 FoFCou: FMM=F IPFlag=           0 FMFlag=           0 FMFlg1=           0
         NFxFlg=           0 DoJE=F BraDBF=F KetDBF=F FulRan=T
         wScrn=  0.000000 ICntrl=       600 IOpCl=  0 I1Cent=           0 NGrid=           0
         NMat0=    1 NMatS0=  18145 NMatT0=    0 NMatD0=    1 NMtDS0=    0 NMtDT0=    0
 Petite list used in FoFCou.
 MDV=  1342177280 DFT=T DoStab=F Mixed=T DoRPA=F DoScal=F NonHer=F
 NEqPCM:  Using equilibrium solvation (IEInf=0, Eps=   2.3741, EpsInf=   2.2383)
 Making orbital integer symmetry assigments:
 Orbital symmetries:
       Occupied  (AG) (B1U) (B2U) (AG) (B3G) (B1U) (B2U) (AG) (B3G)
                 (B1U) (AG) (B2U) (B1U) (AG) (B3G) (B2U) (B1U)
                 (AG) (B2U) (B3G) (AG) (B1U) (AG) (B3G) (B2U) (B1U)
                 (B3U) (B2U) (B3G) (B1G) (AG) (B2G) (B3U) (AU)
       Virtual   (B1G) (B2G) (B3U) (AG) (AU) (B2U) (B1U) (AG) (B3G)
                 (B1U) (B2U) (B2G) (B3G) (B1U) (AG) (B1U) (B3G)
                 (AG) (B2U) (B2U) (AG) (B1U) (B3U) (B1U) (B2U)
                 (B3G) (B1G) (AG) (B2G) (B3G) (B2U) (B1U) (B3G)
                 (B3U) (B2U) (AG) (AG) (AU) (B1U) (B2G) (B3U) (B1G)
                 (AU) (AG) (B1U) (B1U) (B3G) (B2G) (B2U) (B3G)
                 (AG) (B2U) (B1U) (B3G) (AG) (B3G) (B2U) (B2U)
                 (B1U) (AG) (B1U) (B3G) (B2U) (B3G) (B3U) (B1G)
                 (B1U) (AG) (B1G) (AU) (B3U) (B1G) (B2G) (AU) (B3U)
                 (AG) (B2U) (B3G) (B1U) (AG) (B2U) (AG) (B2G) (AG)
                 (B3G) (B2U) (B3U) (B1U) (B2U) (B1U) (B3G) (AG)
                 (B1U) (B2G) (AU) (B1G) (B2U) (B3G) (AG) (B1U)
                 (AU) (B2G) (B3G) (B3U) (B1G) (B2U) (AG) (B3U)
                 (B1G) (B2U) (B3G) (B2G) (B1U) (AG) (AU) (B1U)
                 (B2U) (B3U) (B3G) (AU) (B1G) (AG) (B1U) (B3G)
                 (B2G) (B2U) (B2G) (B1U) (AU) (AG) (B3G) (B2U)
                 (B1U) (AG) (B3G) (B1U) (AG) (B2U) (B3G) (B1U)
                 (B3G) (B1U) (B2U) (AG) (B1U) (B3G) (AG) (B2U)
                 (B1U) (AG) (B3G) (B2U) (B1U) (AG) (B3G) (B1U)
   160 initial guesses have been made.
 Convergence on wavefunction:    0.000001000000000
 Davidson Disk Diagonalization:  ConvIn= 1.00D-06 SkipCon=T Conv= 1.00D-06.
 Max sub-space:  2000 roots to seek:   160 dimension of matrix:         7488
 Iteration     1 Dimension   160 NMult     0 NNew    160
 CISAX will form   160 AO SS matrices at one time.
 NMat=   160 NSing=    80 JSym2X=-1.
 New state      1 was old state      2
 New state      2 was old state      4
 New state      3 was old state      6
 New state      4 was old state     10
 New state      6 was old state      8
 New state      7 was old state      1
 New state      8 was old state     14
 New state      9 was old state     12
 New state     10 was old state     11
 New state     11 was old state     16
 New state     12 was old state     20
 New state     13 was old state     15
 New state     14 was old state     18
 New state     15 was old state     22
 New state     16 was old state     17
 New state     17 was old state     32
 New state     18 was old state     21
 New state     19 was old state      3
 New state     20 was old state      7
 New state     21 was old state     30
 New state     22 was old state     26
 New state     23 was old state     19
 New state     24 was old state     25
 New state     25 was old state     36
 New state     26 was old state     46
 New state     27 was old state     34
 New state     29 was old state     24
 New state     30 was old state     23
 New state     31 was old state     33
 New state     32 was old state      9
 New state     33 was old state     35
 New state     34 was old state     27
 New state     35 was old state     38
 New state     36 was old state     50
 New state     37 was old state     31
 New state     38 was old state     37
 New state     39 was old state     42
 New state     40 was old state     44
 Excitation Energies [eV] at current iteration:
 Root      1 :     3.114809112413038
 Root      2 :     4.133584221663221
 Root      3 :     4.419965506835020
 Root      4 :     4.629165010787379
 Root      5 :     4.684030611697287
 Root      6 :     4.695643770953522
 Root      7 :     5.035100352698109
 Root      8 :     5.599655781718278
 Root      9 :     5.973150351206939
 Root     10 :     6.026495711148955
 Root     11 :     6.277920876181050
 Root     12 :     6.565214294985221
 Root     13 :     6.592573943564730
 Root     14 :     6.627819694106840
 Root     15 :     6.811058425795796
 Root     16 :     6.818959709231509
 Root     17 :     6.956761517093034
 Root     18 :     7.020311320851953
 Root     19 :     7.227766059066094
 Root     20 :     7.242669832584673
 Root     21 :     7.258752479142619
 Root     22 :     7.422854294563773
 Root     23 :     7.481279651771167
 Root     24 :     7.595030331503981
 Root     25 :     7.606988550921502
 Root     26 :     7.616013493087973
 Root     27 :     7.623960426633451
 Root     28 :     7.687153950736959
 Root     29 :     7.735323152006979
 Root     30 :     7.862155965174266
 Root     31 :     7.866997692320000
 Root     32 :     7.925741587386808
 Root     33 :     7.942744515542511
 Root     34 :     7.946393179316567
 Root     35 :     8.247122465472650
 Root     36 :     8.350311394785182
 Root     37 :     8.405596053380069
 Root     38 :     8.411791676337268
 Root     39 :     8.470969708638961
 Root     40 :     8.481464032470075
 Root     41 :     8.512207083759822
 Root     42 :     8.529252790102065
 Root     43 :     8.604594321591728
 Root     44 :     8.619798259799399
 Root     45 :     8.633604193076977
 Root     46 :     8.647121554539652
 Root     47 :     8.697019481099842
 Root     48 :     8.715141319418249
 Root     49 :     8.806063419845589
 Root     50 :     8.849352152692347
 Root     51 :     9.016665962946092
 Root     52 :     9.027558813554746
 Root     53 :     9.054298526234779
 Root     54 :     9.082497500693727
 Root     55 :     9.093325791379655
 Root     56 :     9.150409484590496
 Root     57 :     9.186601037423786
 Root     58 :     9.187950272233666
 Root     59 :     9.249548765881716
 Root     60 :     9.346539272961133
 Root     61 :     9.419486642006602
 Root     62 :     9.444254798881863
 Root     63 :     9.472150500463751
 Root     64 :     9.497645297997654
 Root     65 :     9.501131332928580
 Root     66 :     9.511345562080795
 Root     67 :     9.642698230132105
 Root     68 :     9.732390228597712
 Root     69 :     9.738897667598682
 Root     70 :     9.774448025689342
 Root     71 :     9.791287632867103
 Root     72 :     9.832413261729512
 Root     73 :     9.857620260398617
 Root     74 :     9.880504795739542
 Root     75 :     9.967763397664184
 Root     76 :     9.972389286935899
 Root     77 :    10.004578698640584
 Root     78 :    10.023520853912681
 Root     79 :    10.083851020938923
 Root     80 :    10.115464074221482
 Root     81 :    10.116205490623722
 Root     82 :    10.131041756502938
 Root     83 :    10.139673277475550
 Root     84 :    10.146934009991352
 Root     85 :    10.215765155901696
 Root     86 :    10.216835609292593
 Root     87 :    10.226944856902765
 Root     88 :    10.251265578105606
 Root     89 :    10.268404468931903
 Root     90 :    10.342477478419749
 Root     91 :    10.352828281886115
 Root     92 :    10.399045980718958
 Root     93 :    10.470247607012103
 Root     94 :    10.477470407750793
 Root     95 :    10.482498452739561
 Root     96 :    10.491272598086889
 Root     97 :    10.587599777557903
 Root     98 :    10.592299653136985
 Root     99 :    10.657402753009736
 Root    100 :    10.667615459084388
 Root    101 :    10.726476403103117
 Root    102 :    10.768577294924153
 Root    103 :    10.793288760851205
 Root    104 :    10.811687571705630
 Root    105 :    10.815082986302999
 Root    106 :    10.836064465271770
 Root    107 :    10.861195775284401
 Root    108 :    10.877258300092233
 Root    109 :    10.887069383776414
 Root    110 :    10.902663174887332
 Root    111 :    10.906810437563102
 Root    112 :    10.940696129071117
 Root    113 :    10.983640179345004
 Root    114 :    10.992816083657946
 Root    115 :    11.028891817870912
 Root    116 :    11.035414618977688
 Root    117 :    11.054138207797855
 Root    118 :    11.071988645339779
 Root    119 :    11.073480891691608
 Root    120 :    11.084026953120455
 Root    121 :    11.124478748405963
 Root    122 :    11.139469113132996
 Root    123 :    11.145668973434324
 Root    124 :    11.165196469971830
 Root    125 :    11.171207789593698
 Root    126 :    11.182429949503806
 Root    127 :    11.210410515327649
 Root    128 :    11.276289214544603
 Root    129 :    11.338824188844683
 Root    130 :    11.395394800600604
 Root    131 :    11.513750310818521
 Root    132 :    11.524149990444226
 Root    133 :    11.541409203994244
 Root    134 :    11.573170056833506
 Root    135 :    11.613738377846150
 Root    136 :    11.619374069468709
 Root    137 :    11.619834236357855
 Root    138 :    11.661701195890430
 Root    139 :    11.740442715464530
 Root    140 :    11.780054199604326
 Root    141 :    11.826858074528067
 Root    142 :    11.837201172054513
 Root    143 :    11.846278051757626
 Root    144 :    11.855074281892612
 Root    145 :    11.869052425756378
 Root    146 :    11.876616761286604
 Root    147 :    11.913097989015712
 Root    148 :    11.953183179513823
 Root    149 :    11.954518498249380
 Root    150 :    11.965163637805013
 Root    151 :    11.978909783759738
 Root    152 :    11.984832329983467
 Root    153 :    11.988478811622771
 Root    154 :    12.047427887241689
 Root    155 :    12.084093293574899
 Root    156 :    12.126319547113006
 Root    157 :    12.180934407918709
 Root    158 :    12.233447442109311
 Root    159 :    12.362208126538844
 Root    160 :    13.130003155782239
 Iteration     2 Dimension   320 NMult   160 NNew    160
 CISAX will form   160 AO SS matrices at one time.
 NMat=   160 NSing=    80 JSym2X=-1.
 Root      1 not converged, maximum delta is    0.037416692102990
 Root      2 not converged, maximum delta is    0.008761622731319
 Root      3 not converged, maximum delta is    0.005955430443661
 Root      4 not converged, maximum delta is    0.064435321892065
 New state      5 was old state      6
 Root      5 not converged, maximum delta is    0.043131608755335
 New state      6 was old state      5
 Root      6 not converged, maximum delta is    0.005193230537330
 Root      7 not converged, maximum delta is    0.061192513484152
 Root      8 not converged, maximum delta is    0.016139057769510
 Root      9 not converged, maximum delta is    0.014699815927204
 Root     10 not converged, maximum delta is    0.008736927771102
 Root     11 not converged, maximum delta is    0.039279984068417
 New state     12 was old state     19
 Root     12 not converged, maximum delta is    0.043357925366479
 New state     13 was old state     12
 Root     13 not converged, maximum delta is    0.094715285430295
 New state     14 was old state     13
 Root     14 not converged, maximum delta is    0.008790755377368
 New state     15 was old state     14
 Root     15 not converged, maximum delta is    0.036491896772518
 New state     16 was old state     20
 Root     16 not converged, maximum delta is    0.107594974714702
 New state     17 was old state     15
 Root     17 not converged, maximum delta is    0.054990369038415
 New state     18 was old state     16
 Root     18 not converged, maximum delta is    0.024411753413380
 New state     19 was old state     17
 Root     19 not converged, maximum delta is    0.068112265081449
 New state     20 was old state     18
 Root     20 not converged, maximum delta is    0.032704072008326
 New state     21 was old state     32
 Root     21 not converged, maximum delta is    0.095365187217863
 New state     22 was old state     21
 Root     22 not converged, maximum delta is    0.057165251655919
 Root     23 not converged, maximum delta is    0.154947053763403
 New state     24 was old state     22
 Root     24 not converged, maximum delta is    0.035929684011820
 New state     25 was old state     27
 Root     25 not converged, maximum delta is    0.077946382189413
 New state     26 was old state     25
 Root     26 not converged, maximum delta is    0.040881026812643
 New state     27 was old state     26
 Root     27 not converged, maximum delta is    0.017752562213883
 New state     28 was old state     24
 Root     28 not converged, maximum delta is    0.021802363602380
 New state     29 was old state     28
 Root     29 not converged, maximum delta is    0.061119508432283
 New state     30 was old state     29
 Root     30 not converged, maximum delta is    0.020852766933769
 New state     31 was old state     34
 Root     31 not converged, maximum delta is    0.228533227511710
 New state     32 was old state     31
 Root     32 not converged, maximum delta is    0.052111162968524
 New state     33 was old state     30
 Root     33 not converged, maximum delta is    0.011692251503031
 New state     34 was old state     33
 Root     34 not converged, maximum delta is    0.034104771899126
 Root     35 not converged, maximum delta is    0.046252103913679
 Root     36 not converged, maximum delta is    0.055804324543407
 Root     37 not converged, maximum delta is    0.132572103913368
 Root     38 not converged, maximum delta is    0.025680541356212
 New state     39 was old state     42
 Root     39 not converged, maximum delta is    0.074583608096310
 New state     40 was old state     39
 Root     40 not converged, maximum delta is    0.036130871985569
 Excitation Energies [eV] at current iteration:
 Root      1 :     3.029789331358060   Change is   -0.085019781054977
 Root      2 :     4.107950985985755   Change is   -0.025633235677465
 Root      3 :     4.406066227906848   Change is   -0.013899278928172
 Root      4 :     4.461481710625192   Change is   -0.167683300162187
 Root      5 :     4.618438336601018   Change is   -0.077205434352503
 Root      6 :     4.652703054106558   Change is   -0.031327557590729
 Root      7 :     4.740239759255300   Change is   -0.294860593442809
 Root      8 :     5.546321132380106   Change is   -0.053334649338172
 Root      9 :     5.964274637507335   Change is   -0.008875713699605
 Root     10 :     6.018609857490032   Change is   -0.007885853658923
 Root     11 :     6.255855217727979   Change is   -0.022065658453071
 Root     12 :     6.353660216109017   Change is   -0.874105842957078
 Root     13 :     6.428919496946071   Change is   -0.136294798039150
 Root     14 :     6.546728260891412   Change is   -0.045845682673317
 Root     15 :     6.576863782416784   Change is   -0.050955911690057
 Root     16 :     6.639362346373637   Change is   -0.603307486211036
 Root     17 :     6.724483565214345   Change is   -0.086574860581452
 Root     18 :     6.795747518733689   Change is   -0.023212190497820
 Root     19 :     6.824616363297297   Change is   -0.132145153795737
 Root     20 :     6.976432829798016   Change is   -0.043878491053936
 Root     21 :     7.011985525342547   Change is   -0.913756062044260
 Root     22 :     7.179153476770218   Change is   -0.079599002372401
 Root     23 :     7.344708255775446   Change is   -0.136571395995722
 Root     24 :     7.347568177082032   Change is   -0.075286117481741
 Root     25 :     7.519000246972546   Change is   -0.104960179660905
 Root     26 :     7.524677847501398   Change is   -0.082310703420103
 Root     27 :     7.546702532541786   Change is   -0.069310960546187
 Root     28 :     7.559047429918152   Change is   -0.035982901585829
 Root     29 :     7.640638573982868   Change is   -0.046515376754090
 Root     30 :     7.702376430419198   Change is   -0.032946721587780
 Root     31 :     7.737906079783607   Change is   -0.208487099532960
 Root     32 :     7.807782119777037   Change is   -0.059215572542964
 Root     33 :     7.841780652411550   Change is   -0.020375312762716
 Root     34 :     7.894499973672247   Change is   -0.048244541870265
 Root     35 :     8.193212309311374   Change is   -0.053910156161276
 Root     36 :     8.235754006829426   Change is   -0.114557387955754
 Root     37 :     8.302474465467185   Change is   -0.103121587912884
 Root     38 :     8.372746909725331   Change is   -0.039044766611938
 Root     39 :     8.411686982298486   Change is   -0.117565807803579
 Root     40 :     8.421040688390846   Change is   -0.049929020248115
 Root     41 :     8.446981246319819   Change is   -0.034482786150256
 Root     42 :     8.473274247023197   Change is   -0.038932836736626
 Root     43 :     8.544516713954550   Change is   -0.060077607637178
 Root     44 :     8.555486190591440   Change is   -0.078118002485536
 Root     45 :     8.576058177903436   Change is   -0.925073155025144
 Root     46 :     8.591637190565876   Change is   -0.028161069233524
 Root     47 :     8.605578307957101   Change is   -0.091441173142741
 Root     48 :     8.622192165040159   Change is   -0.024929389499492
 Root     49 :     8.665722936699245   Change is   -0.049418382719004
 Root     50 :     8.679928577897005   Change is   -0.126134841948584
 Root     51 :     8.807270273008054   Change is   -0.042081879684294
 Root     52 :     8.853211344056213   Change is   -0.163454618889880
 Root     53 :     8.975977908001976   Change is   -0.051580905552771
 Root     54 :     8.995332266298236   Change is   -0.087165234395489
 Root     55 :     9.045976829278377   Change is   -0.047348962101279
 Root     56 :     9.048957740139757   Change is   -0.005340786095021
 Root     57 :     9.096817528120143   Change is   -0.091132744113522
 Root     58 :     9.121734629772483   Change is   -0.028674854818012
 Root     59 :     9.149460807948355   Change is   -0.037140229475433
 Root     60 :     9.189649071305089   Change is   -0.059899694576628
 Root     61 :     9.230828842616910   Change is   -1.804585776360778
 Root     62 :     9.247867886533422   Change is   -0.968967722759172
 Root     63 :     9.250983921657172   Change is   -0.095555351303961
 Root     64 :     9.339936340274235   Change is   -0.079550301732366
 Root     65 :     9.408770558185019   Change is   -0.035484240696843
 Root     66 :     9.436845966771878   Change is   -0.060799331225775
 Root     67 :     9.450531937031624   Change is   -0.021618563432128
 Root     68 :     9.495547687155662   Change is   -0.015797874925133
 Root     69 :     9.597753128517033   Change is   -0.044945101615073
 Root     70 :     9.613659519646593   Change is   -0.118730708951119
 Root     71 :     9.702318039799557   Change is   -0.072129985889784
 Root     72 :     9.703454270292060   Change is   -0.035443397306622
 Root     73 :     9.705762114406982   Change is   -0.085525518460122
 Root     74 :     9.756014148199714   Change is   -0.101606112198903
 Root     75 :     9.785115047736392   Change is   -0.047298213993120
 Root     76 :     9.853591408398064   Change is   -0.026913387341478
 Root     77 :     9.856794080120229   Change is   -0.147784618520355
 Root     78 :     9.923708215244060   Change is   -0.044055182420125
 Root     79 :     9.927836752978225   Change is   -0.044552533957673
 Root     80 :     9.953618303536638   Change is   -0.186054973938911
 Root     81 :     9.975252490577743   Change is   -0.048268363334937
 Root     82 :    10.004299532659681   Change is   -0.079551488279241
 Root     83 :    10.035878270207300   Change is   -0.095163486295637
 Root     84 :    10.064235683248084   Change is   -0.051228390973398
 Root     85 :    10.069466907525406   Change is   -0.198937561406497
 Root     86 :    10.075702740833279   Change is   -0.040502749790445
 Root     87 :    10.078320005577336   Change is   -0.068614004414015
 Root     88 :    10.097566309808997   Change is   -0.153699268296610
 Root     89 :    10.171675008136528   Change is   -0.044090147765168
 Root     90 :    10.196955961309694   Change is   -0.029988895593070
 Root     91 :    10.218328214691878   Change is   -0.180717766027078
 Root     92 :    10.271725925913369   Change is   -0.070751552506379
 Root     93 :    10.298583616942715   Change is   -0.054244664943400
 Root     94 :    10.418377490230521   Change is   -0.072895107856368
 Root     95 :    10.425831727066871   Change is   -0.044415879945231
 Root     96 :    10.435789247992480   Change is   -0.046709204747082
 Root     97 :    10.466704259778872   Change is   -0.010766147971921
 Root     98 :    10.469514180884429   Change is   -0.323774579966775
 Root     99 :    10.472765837476230   Change is   -0.184636915533507
 Root    100 :    10.493144870100855   Change is   -0.094454907457050
 Root    101 :    10.550295878441167   Change is   -0.042003774695818
 Root    102 :    10.598988235032229   Change is   -0.068627224052160
 Root    103 :    10.641496391955448   Change is   -0.170191179750183
 Root    104 :    10.652191497084699   Change is   -0.074284906018417
 Root    105 :    10.664902935774760   Change is   -0.318737243570244
 Root    106 :    10.729993712408666   Change is   -0.038583582515486
 Root    107 :    10.732305477029920   Change is   -0.103758988241851
 Root    108 :    10.776184339365091   Change is   -0.307842613755365
 Root    109 :    10.779922583824746   Change is   -0.035160402478252
 Root    110 :    10.799601666717859   Change is   -0.077656633374375
 Root    111 :    10.806560776953505   Change is   -0.096102397933825
 Root    112 :    10.811124309336838   Change is   -0.050071465947561
 Root    113 :    10.830031935200914   Change is   -0.057037448575499
 Root    114 :    10.879055991802536   Change is   -0.027754445760567
 Root    115 :    10.892783177021245   Change is   -0.047912952049873
 Root    116 :    10.909926847399673   Change is   -0.082889236258273
 Root    117 :    10.969844273045792   Change is   -0.425550527554812
 Root    118 :    10.981428710325551   Change is   -1.144890836787456
 Root    119 :    10.981655893176359   Change is   -0.047235924694554
 Root    120 :    11.006633726854735   Change is   -0.117845021551228
 Root    121 :    11.006849942785866   Change is   -0.065138702553914
 Root    122 :    11.011395220684514   Change is   -0.042742987113341
 Root    123 :    11.013801395379781   Change is   -0.059679496311826
 Root    124 :    11.061989735716722   Change is   -0.103206734255108
 Root    125 :    11.092989541655321   Change is   -0.046479571477676
 Root    126 :    11.110990441324189   Change is   -0.034678532110135
 Root    127 :    11.130841792542107   Change is   -0.393308197902119
 Root    128 :    11.139108029894796   Change is   -0.032099759698901
 Root    129 :    11.145451632002562   Change is   -0.036978317501244
 Root    130 :    11.150543085877620   Change is   -0.059867429450028
 Root    131 :    11.154308887432082   Change is   -0.672549187095984
 Root    132 :    11.213185500555493   Change is   -0.125638688289191
 Root    133 :    11.248499749822342   Change is   -0.027789464722260
 Root    134 :    11.385774270765245   Change is   -0.233599798703465
 Root    135 :    11.445222233893729   Change is   -0.127947822939778
 Root    136 :    11.446305102415653   Change is   -0.095104101578591
 Root    137 :    11.481261812879062   Change is   -0.032488497939459
 Root    138 :    11.539812984086813   Change is   -0.073925393759337
 Root    139 :    11.542873146386658   Change is   -0.076961089971197
 Root    140 :    11.581031488438489   Change is   -0.288020937317889
 Root    141 :    11.608337256694556   Change is   -0.053363939195874
 Root    142 :    11.664685701185606   Change is   -0.115368498418719
 Root    143 :    11.673741234368013   Change is   -0.172536817389612
 Root    144 :    11.685064242526591   Change is   -0.055378472937939
 Root    145 :    11.700056634952189   Change is   -0.137144537102324
 Root    146 :    11.782673826579403   Change is   -0.093942934707200
 Root    147 :    11.789920335576223   Change is   -0.175243302228789
 Root    148 :    11.817294649611631   Change is   -0.037779632280982
 Root    149 :    11.845964066555469   Change is   -0.067133922460244
 Root    150 :    11.867319167116673   Change is   -0.085864012397151
 Root    151 :    11.895273792119447   Change is   -1.234729363662793
 Root    152 :    11.907845816751768   Change is   -0.080632994871002
 Root    153 :    11.916905821452291   Change is   -0.037612676797088
 Root    154 :    11.925650024388387   Change is   -0.053259759371352
 Root    155 :    11.939582542364123   Change is   -0.045249787619345
 Root    156 :    11.957153235955671   Change is   -0.126940057619228
 Root    157 :    11.994098079119071   Change is   -0.053329808122618
 Root    158 :    12.096703620787398   Change is   -0.084230787131311
 Root    159 :    12.177595851035589   Change is   -0.055851591073721
 Root    160 :    12.197056105840479   Change is   -0.165152020698365
 Iteration     3 Dimension   340 NMult   320 NNew     20
 CISAX will form    20 AO SS matrices at one time.
 NMat=    20 NSing=    10 JSym2X=-1.
 Root      1 not converged, maximum delta is    0.000818524483519
 Root      2 not converged, maximum delta is    0.000444295120058
 Root      3 not converged, maximum delta is    0.000243175403752
 Root      4 not converged, maximum delta is    0.001199929672299
 Root      5 not converged, maximum delta is    0.000888747019261
 Root      6 not converged, maximum delta is    0.000604772158672
 Root      7 not converged, maximum delta is    0.002347248695652
 Root      8 not converged, maximum delta is    0.000784114006447
 Root      9 not converged, maximum delta is    0.000154949615679
 Root     10 not converged, maximum delta is    0.000667766878473
 Root     11 not converged, maximum delta is    0.000566820502190
 Root     12 not converged, maximum delta is    0.005516098210074
 Root     13 not converged, maximum delta is    0.001038896000791
 Root     14 not converged, maximum delta is    0.001935710909135
 Root     15 not converged, maximum delta is    0.001274967980717
 Root     16 not converged, maximum delta is    0.005173442622727
 New state     17 was old state     18
 Root     17 not converged, maximum delta is    0.001352734502828
 New state     18 was old state     20
 Root     18 not converged, maximum delta is    0.001947749105911
 New state     19 was old state     21
 Root     19 not converged, maximum delta is    0.006288029312475
 New state     20 was old state     23
 Root     20 not converged, maximum delta is    0.001312073493052
 Excitation Energies [eV] at current iteration:
 Root      1 :     3.029370334981865   Change is   -0.000418996376196
 Root      2 :     4.107791820709393   Change is   -0.000159165276363
 Root      3 :     4.406042425878535   Change is   -0.000023802028312
 Root      4 :     4.460795396615083   Change is   -0.000686314010110
 Root      5 :     4.618027882650195   Change is   -0.000410453950823
 Root      6 :     4.652515039138694   Change is   -0.000188014967863
 Root      7 :     4.738693402781528   Change is   -0.001546356473773
 Root      8 :     5.545933111100638   Change is   -0.000388021279468
 Root      9 :     5.964259213552777   Change is   -0.000015423954558
 Root     10 :     6.018534733093291   Change is   -0.000075124396741
 Root     11 :     6.255789424513771   Change is   -0.000065793214208
 Root     12 :     6.341957866406395   Change is   -0.011702349702621
 Root     13 :     6.428327823873497   Change is   -0.000591673072574
 Root     14 :     6.546270436631455   Change is   -0.000457824259957
 Root     15 :     6.576679093587396   Change is   -0.000184688829388
 Root     16 :     6.634801259436755   Change is   -0.004561086936881
 Root     17 :     6.795541800460813   Change is   -0.000205718272876
 Root     18 :     6.975928571179140   Change is   -0.000504258618876
 Root     19 :     7.006215388655273   Change is   -0.005770136687274
 Root     20 :     7.343834194284468   Change is   -0.000874061490979
 Iteration     4 Dimension   360 NMult   340 NNew     20
 CISAX will form    20 AO SS matrices at one time.
 NMat=    20 NSing=    10 JSym2X=-1.
 Root      1 not converged, maximum delta is    0.000068857994115
 Root      2 not converged, maximum delta is    0.000076511514912
 Root      3 not converged, maximum delta is    0.000024750637714
 Root      4 not converged, maximum delta is    0.000251957965539
 Root      5 not converged, maximum delta is    0.000102752833550
 Root      6 not converged, maximum delta is    0.000025827245647
 Root      7 not converged, maximum delta is    0.000155645605030
 Root      8 not converged, maximum delta is    0.000126624800154
 Root      9 not converged, maximum delta is    0.000030062081505
 Root     10 not converged, maximum delta is    0.000020639624098
 Root     11 not converged, maximum delta is    0.000042971577056
 Root     12 not converged, maximum delta is    0.000382150717856
 Root     13 not converged, maximum delta is    0.000133504965229
 Root     14 not converged, maximum delta is    0.000171296422592
 Root     15 not converged, maximum delta is    0.000106683776715
 Root     16 not converged, maximum delta is    0.000458980586035
 Root     17 not converged, maximum delta is    0.000076558768642
 Root     18 not converged, maximum delta is    0.000244036124891
 Root     19 not converged, maximum delta is    0.000890231073611
 Root     20 not converged, maximum delta is    0.000233929410953
 Excitation Energies [eV] at current iteration:
 Root      1 :     3.029368246499383   Change is   -0.000002088482481
 Root      2 :     4.107790204368480   Change is   -0.000001616340913
 Root      3 :     4.406042242673901   Change is   -0.000000183204635
 Root      4 :     4.460784441149727   Change is   -0.000010955465356
 Root      5 :     4.618024545857999   Change is   -0.000003336792197
 Root      6 :     4.652514251232263   Change is   -0.000000787906432
 Root      7 :     4.738687225687004   Change is   -0.000006177094524
 Root      8 :     5.545928066348269   Change is   -0.000005044752369
 Root      9 :     5.964259010192296   Change is   -0.000000203360481
 Root     10 :     6.018534590064654   Change is   -0.000000143028637
 Root     11 :     6.255788695307400   Change is   -0.000000729206371
 Root     12 :     6.341863181763689   Change is   -0.000094684642706
 Root     13 :     6.428321030671951   Change is   -0.000006793201545
 Root     14 :     6.546264487964039   Change is   -0.000005948667417
 Root     15 :     6.576677786795862   Change is   -0.000001306791534
 Root     16 :     6.634770313560233   Change is   -0.000030945876522
 Root     17 :     6.795541175223409   Change is   -0.000000625237404
 Root     18 :     6.975923646289325   Change is   -0.000004924889815
 Root     19 :     7.006135710716060   Change is   -0.000079677939213
 Root     20 :     7.343808842509301   Change is   -0.000025351775167
 Iteration     5 Dimension   380 NMult   360 NNew     20
 CISAX will form    20 AO SS matrices at one time.
 NMat=    20 NSing=    10 JSym2X=-1.
 Root      1 not converged, maximum delta is    0.000003859236235
 Root      2 not converged, maximum delta is    0.000006428025603
 Root      3 not converged, maximum delta is    0.000001448477535
 Root      4 not converged, maximum delta is    0.000023313118505
 Root      5 not converged, maximum delta is    0.000005485442271
 Root      6 not converged, maximum delta is    0.000001941573911
 Root      7 not converged, maximum delta is    0.000006394808136
 Root      8 not converged, maximum delta is    0.000018612193672
 Root      9 not converged, maximum delta is    0.000003732330741
 Root     10 not converged, maximum delta is    0.000001713804075
 Root     11 not converged, maximum delta is    0.000006644988278
 Root     12 not converged, maximum delta is    0.000021484183607
 Root     13 not converged, maximum delta is    0.000009519931722
 Root     14 not converged, maximum delta is    0.000018446765534
 Root     15 not converged, maximum delta is    0.000008807990226
 Root     16 not converged, maximum delta is    0.000019164640979
 Root     17 not converged, maximum delta is    0.000003494823414
 Root     18 not converged, maximum delta is    0.000023589120698
 Root     19 not converged, maximum delta is    0.000097398197095
 Root     20 not converged, maximum delta is    0.000030899697609
 Excitation Energies [eV] at current iteration:
 Root      1 :     3.029368239009218   Change is   -0.000000007490165
 Root      2 :     4.107790189933642   Change is   -0.000000014434839
 Root      3 :     4.406042241870520   Change is   -0.000000000803381
 Root      4 :     4.460784291996347   Change is   -0.000000149153380
 Root      5 :     4.618024532712952   Change is   -0.000000013145047
 Root      6 :     4.652514248536628   Change is   -0.000000002695635
 Root      7 :     4.738687205681511   Change is   -0.000000020005493
 Root      8 :     5.545927976177951   Change is   -0.000000090170318
 Root      9 :     5.964259007056521   Change is   -0.000000003135775
 Root     10 :     6.018534589248089   Change is   -0.000000000816565
 Root     11 :     6.255788689048642   Change is   -0.000000006258758
 Root     12 :     6.341862878056276   Change is   -0.000000303707414
 Root     13 :     6.428320996904877   Change is   -0.000000033767074
 Root     14 :     6.546264437981404   Change is   -0.000000049982635
 Root     15 :     6.576677780129810   Change is   -0.000000006666053
 Root     16 :     6.634770183033657   Change is   -0.000000130526577
 Root     17 :     6.795541173822895   Change is   -0.000000001400514
 Root     18 :     6.975923625010632   Change is   -0.000000021278693
 Root     19 :     7.006134904577836   Change is   -0.000000806138224
 Root     20 :     7.343808580063874   Change is   -0.000000262445426
 Iteration     6 Dimension   400 NMult   380 NNew     20
 CISAX will form    20 AO SS matrices at one time.
 NMat=    20 NSing=    10 JSym2X=-1.
 Root      1 has converged.
 Root      2 has converged.
 Root      3 has converged.
 Root      4 not converged, maximum delta is    0.000001184715802
 Root      5 has converged.
 Root      6 has converged.
 Root      7 has converged.
 Root      8 not converged, maximum delta is    0.000001976929295
 Root      9 has converged.
 Root     10 has converged.
 Root     11 has converged.
 Root     12 not converged, maximum delta is    0.000001601968042
 Root     13 has converged.
 Root     14 not converged, maximum delta is    0.000001428166675
 Root     15 has converged.
 Root     16 not converged, maximum delta is    0.000001775874551
 Root     17 has converged.
 Root     18 has converged.
 Root     19 not converged, maximum delta is    0.000005183862298
 Root     20 not converged, maximum delta is    0.000003710100248
 Excitation Energies [eV] at current iteration:
 Root      1 :     3.029368238966694   Change is   -0.000000000042525
 Root      2 :     4.107790189818986   Change is   -0.000000000114656
 Root      3 :     4.406042241866242   Change is   -0.000000000004278
 Root      4 :     4.460784290918011   Change is   -0.000000001078335
 Root      5 :     4.618024532618079   Change is   -0.000000000094874
 Root      6 :     4.652514248530622   Change is   -0.000000000006006
 Root      7 :     4.738687205581742   Change is   -0.000000000099768
 Root      8 :     5.545927975093345   Change is   -0.000000001084607
 Root      9 :     5.964259007027984   Change is   -0.000000000028537
 Root     10 :     6.018534589243032   Change is   -0.000000000005057
 Root     11 :     6.255788688960795   Change is   -0.000000000087847
 Root     12 :     6.341862877222823   Change is   -0.000000000833453
 Root     13 :     6.428320996653554   Change is   -0.000000000251323
 Root     14 :     6.546264437713224   Change is   -0.000000000268180
 Root     15 :     6.576677780113575   Change is   -0.000000000016235
 Root     16 :     6.634770182259544   Change is   -0.000000000774113
 Root     17 :     6.795541173820648   Change is   -0.000000000002248
 Root     18 :     6.975923624905112   Change is   -0.000000000105520
 Root     19 :     7.006134898562292   Change is   -0.000000006015544
 Root     20 :     7.343808577341111   Change is   -0.000000002722764
 Iteration     7 Dimension   407 NMult   400 NNew      7
 CISAX will form     7 AO SS matrices at one time.
 NMat=     7 NSing=     5 JSym2X=-1.
 Root      1 has converged.
 Root      2 has converged.
 Root      3 has converged.
 Root      4 has converged.
 Root      5 has converged.
 Root      6 has converged.
 Root      7 has converged.
 Root      8 has converged.
 Root      9 has converged.
 Root     10 has converged.
 Root     11 has converged.
 Root     12 has converged.
 Root     13 has converged.
 Root     14 has converged.
 Root     15 has converged.
 Root     16 has converged.
 Root     17 has converged.
 Root     18 has converged.
 Root     19 has converged.
 Root     20 has converged.
 Excitation Energies [eV] at current iteration:
 Root      1 :     3.029368238966700   Change is    0.000000000000006
 Root      2 :     4.107790189818956   Change is   -0.000000000000030
 Root      3 :     4.406042241866224   Change is   -0.000000000000018
 Root      4 :     4.460784290913945   Change is   -0.000000000004066
 Root      5 :     4.618024532618055   Change is   -0.000000000000024
[...]
  41        4YY         0.00741
  42        4ZZ         0.00652
  43        4XY         0.00412
  44        4XZ         0.00572
  45        4YZ         0.01292
  46 4   C  1S          1.99270
  47        2S          0.69443
  48        2PX         0.56384
  49        2PY         0.75604
  50        2PZ         0.73916
  51        3S          0.50889
  52        3PX         0.43137
  53        3PY         0.18682
  54        3PZ         0.26979
  55        4XX        -0.01919
  56        4YY         0.00891
  57        4ZZ         0.00852
  58        4XY         0.00660
  59        4XZ         0.00216
  60        4YZ         0.01060
  61 5   C  1S          1.99275
  62        2S          0.69474
  63        2PX         0.56403
  64        2PY         0.75563
  65        2PZ         0.74557
  66        3S          0.45412
  67        3PX         0.40679
  68        3PY         0.14666
  69        3PZ         0.15522
  70        4XX        -0.01875
  71        4YY         0.01068
  72        4ZZ         0.00866
  73        4XY         0.00821
  74        4XZ         0.00553
  75        4YZ         0.01285
  76 6   C  1S          1.99275
  77        2S          0.69474
  78        2PX         0.56403
  79        2PY         0.75563
  80        2PZ         0.74557
  81        3S          0.45412
  82        3PX         0.40679
  83        3PY         0.14666
  84        3PZ         0.15522
  85        4XX        -0.01875
  86        4YY         0.01068
  87        4ZZ         0.00866
  88        4XY         0.00821
  89        4XZ         0.00553
  90        4YZ         0.01285
  91 7   C  1S          1.99270
  92        2S          0.69443
  93        2PX         0.56384
  94        2PY         0.75604
  95        2PZ         0.73916
  96        3S          0.50889
  97        3PX         0.43137
  98        3PY         0.18682
  99        3PZ         0.26979
 100        4XX        -0.01919
 101        4YY         0.00891
 102        4ZZ         0.00852
 103        4XY         0.00660
 104        4XZ         0.00216
 105        4YZ         0.01060
 106 8   C  1S          1.99270
 107        2S          0.69443
 108        2PX         0.56384
 109        2PY         0.75604
 110        2PZ         0.73916
 111        3S          0.50889
 112        3PX         0.43137
 113        3PY         0.18682
 114        3PZ         0.26979
 115        4XX        -0.01919
 116        4YY         0.00891
 117        4ZZ         0.00852
 118        4XY         0.00660
 119        4XZ         0.00216
 120        4YZ         0.01060
 121 9   C  1S          1.99272
 122        2S          0.69302
 123        2PX         0.55823
 124        2PY         0.74955
 125        2PZ         0.74558
 126        3S          0.52159
 127        3PX         0.42985
 128        3PY         0.23746
 129        3PZ         0.19257
 130        4XX        -0.01937
 131        4YY         0.00741
 132        4ZZ         0.00652
 133        4XY         0.00412
 134        4XZ         0.00572
 135        4YZ         0.01292
 136 10  C  1S          1.99272
 137        2S          0.69302
 138        2PX         0.55823
 139        2PY         0.74955
 140        2PZ         0.74558
 141        3S          0.52159
 142        3PX         0.42985
 143        3PY         0.23746
 144        3PZ         0.19257
 145        4XX        -0.01937
 146        4YY         0.00741
 147        4ZZ         0.00652
 148        4XY         0.00412
 149        4XZ         0.00572
 150        4YZ         0.01292
 151 11  H  1S          0.52797
 152        2S          0.32453
 153        3PX         0.00296
 154        3PY         0.00186
 155        3PZ         0.00800
 156 12  H  1S          0.52893
 157        2S          0.32311
 158        3PX         0.00288
 159        3PY         0.00658
 160        3PZ         0.00331
 161 13  H  1S          0.52893
 162        2S          0.32311
 163        3PX         0.00288
 164        3PY         0.00658
 165        3PZ         0.00331
 166 14  H  1S          0.52797
 167        2S          0.32453
 168        3PX         0.00296
 169        3PY         0.00186
 170        3PZ         0.00800
 171 15  H  1S          0.52797
 172        2S          0.32453
 173        3PX         0.00296
 174        3PY         0.00186
 175        3PZ         0.00800
 176 16  H  1S          0.52797
 177        2S          0.32453
 178        3PX         0.00296
 179        3PY         0.00186
 180        3PZ         0.00800
 181 17  H  1S          0.52893
 182        2S          0.32311
 183        3PX         0.00288
 184        3PY         0.00658
 185        3PZ         0.00331
 186 18  H  1S          0.52893
 187        2S          0.32311
 188        3PX         0.00288
 189        3PY         0.00658
 190        3PZ         0.00331
          Condensed to atoms (all electrons):
               1          2          3          4          5          6
     1  C    5.105150   0.434066  -0.042180  -0.045503  -0.038982   0.476011
     2  C    0.434066   4.921973   0.567433  -0.042180  -0.033237  -0.025795
     3  C   -0.042180   0.567433   4.921973   0.434066  -0.025795  -0.033237
     4  C   -0.045503  -0.042180   0.434066   5.105150   0.476011  -0.038982
     5  C   -0.038982  -0.033237  -0.025795   0.476011   4.717578   0.527508
     6  C    0.476011  -0.025795  -0.033237  -0.038982   0.527508   4.717578
     7  C   -0.084623   0.008401  -0.000330   0.010548  -0.038982   0.476011
     8  C    0.010548  -0.000330   0.008401  -0.084623   0.476011  -0.038982
     9  C   -0.000330   0.000042  -0.000376   0.008401  -0.025795  -0.033237
    10  C    0.008401  -0.000376   0.000042  -0.000330  -0.033237  -0.025795
    11  H    0.375563  -0.039877   0.004107   0.000482   0.004020  -0.036915
    12  H   -0.034575   0.377383  -0.033899   0.003710   0.000899   0.002800
    13  H    0.003710  -0.033899   0.377383  -0.034575   0.002800   0.000899
    14  H    0.000482   0.004107  -0.039877   0.375563  -0.036915   0.004020
    15  H   -0.006741   0.000161   0.000014  -0.000179   0.004020  -0.036915
    16  H   -0.000179   0.000014   0.000161  -0.006741  -0.036915   0.004020
    17  H    0.000009  -0.000000   0.000003  -0.000181   0.002800   0.000899
    18  H   -0.000181   0.000003  -0.000000   0.000009   0.000899   0.002800
               7          8          9         10         11         12
     1  C   -0.084623   0.010548  -0.000330   0.008401   0.375563  -0.034575
     2  C    0.008401  -0.000330   0.000042  -0.000376  -0.039877   0.377383
     3  C   -0.000330   0.008401  -0.000376   0.000042   0.004107  -0.033899
     4  C    0.010548  -0.084623   0.008401  -0.000330   0.000482   0.003710
     5  C   -0.038982   0.476011  -0.025795  -0.033237   0.004020   0.000899
     6  C    0.476011  -0.038982  -0.033237  -0.025795  -0.036915   0.002800
     7  C    5.105150  -0.045503  -0.042180   0.434066  -0.006741  -0.000181
     8  C   -0.045503   5.105150   0.434066  -0.042180  -0.000179   0.000009
     9  C   -0.042180   0.434066   4.921973   0.567433   0.000014  -0.000000
    10  C    0.434066  -0.042180   0.567433   4.921973   0.000161   0.000003
    11  H   -0.006741  -0.000179   0.000014   0.000161   0.564257  -0.004840
    12  H   -0.000181   0.000009  -0.000000   0.000003  -0.004840   0.558124
    13  H    0.000009  -0.000181   0.000003  -0.000000  -0.000166  -0.004446
    14  H   -0.000179  -0.006741   0.000161   0.000014   0.000018  -0.000166
    15  H    0.375563   0.000482   0.004107  -0.039877   0.005413  -0.000010
    16  H    0.000482   0.375563  -0.039877   0.004107   0.000002  -0.000000
    17  H    0.003710  -0.034575   0.377383  -0.033899  -0.000000   0.000000
    18  H   -0.034575   0.003710  -0.033899   0.377383  -0.000010  -0.000000
              13         14         15         16         17         18
     1  C    0.003710   0.000482  -0.006741  -0.000179   0.000009  -0.000181
     2  C   -0.033899   0.004107   0.000161   0.000014  -0.000000   0.000003
     3  C    0.377383  -0.039877   0.000014   0.000161   0.000003  -0.000000
     4  C   -0.034575   0.375563  -0.000179  -0.006741  -0.000181   0.000009
     5  C    0.002800  -0.036915   0.004020  -0.036915   0.002800   0.000899
     6  C    0.000899   0.004020  -0.036915   0.004020   0.000899   0.002800
     7  C    0.000009  -0.000179   0.375563   0.000482   0.003710  -0.034575
     8  C   -0.000181  -0.006741   0.000482   0.375563  -0.034575   0.003710
     9  C    0.000003   0.000161   0.004107  -0.039877   0.377383  -0.033899
    10  C   -0.000000   0.000014  -0.039877   0.004107  -0.033899   0.377383
    11  H   -0.000166   0.000018   0.005413   0.000002  -0.000000  -0.000010
    12  H   -0.004446  -0.000166  -0.000010  -0.000000   0.000000  -0.000000
    13  H    0.558124  -0.004840  -0.000000  -0.000010  -0.000000   0.000000
    14  H   -0.004840   0.564257   0.000002   0.005413  -0.000010  -0.000000
    15  H   -0.000000   0.000002   0.564257   0.000018  -0.000166  -0.004840
    16  H   -0.000010   0.005413   0.000018   0.564257  -0.004840  -0.000166
    17  H   -0.000000  -0.000010  -0.000166  -0.004840   0.558124  -0.004446
    18  H    0.000000  -0.000000  -0.004840  -0.000166  -0.004446   0.558124
 Mulliken charges:
               1
     1  C   -0.160647
     2  C   -0.137889
     3  C   -0.137889
     4  C   -0.160647
     5  C    0.057313
     6  C    0.057313
     7  C   -0.160647
     8  C   -0.160647
     9  C   -0.137889
    10  C   -0.137889
    11  H    0.134690
    12  H    0.135189
    13  H    0.135189
    14  H    0.134690
    15  H    0.134690
    16  H    0.134690
    17  H    0.135189
    18  H    0.135189
 Sum of Mulliken charges =  -0.00000
 Mulliken charges with hydrogens summed into heavy atoms:
               1
     1  C   -0.025957
     2  C   -0.002700
     3  C   -0.002700
     4  C   -0.025957
     5  C    0.057313
     6  C    0.057313
     7  C   -0.025957
     8  C   -0.025957
     9  C   -0.002700
    10  C   -0.002700
 Electronic spatial extent (au):  <R**2>=           1283.7251
 Charge=              0.0000 electrons
 Dipole moment (field-independent basis, Debye):
    X=              0.0000    Y=             -0.0000    Z=              0.0000  Tot=              0.0000
 Quadrupole moment (field-independent basis, Debye-Ang):
   XX=            -62.4606   YY=            -50.2364   ZZ=            -49.4530
   XY=              0.0000   XZ=             -0.0000   YZ=             -0.0000
 Traceless Quadrupole moment (field-independent basis, Debye-Ang):
   XX=             -8.4106   YY=              3.8136   ZZ=              4.5970
   XY=              0.0000   XZ=             -0.0000   YZ=             -0.0000
 Octapole moment (field-independent basis, Debye-Ang**2):
  XXX=              0.0000  YYY=             -0.0000  ZZZ=              0.0000  XYY=              0.0000
  XXY=             -0.0000  XXZ=              0.0000  XZZ=              0.0000  YZZ=             -0.0000
  YYZ=             -0.0000  XYZ=             -0.0000
 Hexadecapole moment (field-independent basis, Debye-Ang**3):
 XXXX=            -64.9724 YYYY=          -1062.6060 ZZZZ=           -463.6262 XXXY=             -0.0000
 XXXZ=              0.0000 YYYX=             -0.0000 YYYZ=              0.0000 ZZZX=              0.0000
 ZZZY=             -0.0000 XXYY=           -230.9758 XXZZ=           -106.3950 YYZZ=           -251.8914
 XXYZ=             -0.0000 YYXZ=              0.0000 ZZXY=             -0.0000
 N-N= 4.584145273344D+02 E-N=-1.809987458057D+03  KE= 3.822578935524D+02
 Symmetry AG   KE= 1.121078494579D+02
 Symmetry B1G  KE= 3.203934068867D+00
 Symmetry B2G  KE= 2.155517239203D+00
 Symmetry B3G  KE= 7.535451550103D+01
 Symmetry AU   KE= 1.314324959056D+00
 Symmetry B1U  KE= 1.067404151732D+02
 Symmetry B2U  KE= 7.729650117741D+01
 Symmetry B3U  KE= 4.084835975729D+00
 Orbital energies and kinetic energies (alpha):
                                 1                 2
  30         (B1G)--O         -0.340159          0.982083
  31         (AG)--O          -0.337649          1.418688
  32         (B2G)--O         -0.296740          1.068735
  33         (B3U)--O         -0.253885          1.138052
  34         (AU)--O          -0.225301          1.170973
  35         (B1G)--V         -0.033972          1.320245
  36         (B2G)--V         -0.003713          1.376067
  37         (B3U)--V          0.039000          1.366872
  38         (AG)--V           0.107044          0.923896
  39         (AU)--V           0.109045          1.539842
 Total kinetic energy from orbitals= 3.820333909680D+02
 No NMR shielding tensors so no spin-rotation constants.
 Leave Link  601 at Tue Jun  7 16:48:17 2022, MaxMem=  1342177280 cpu:               1.3 elap:               0.5
 (Enter /gpfs1/apps/software/Gaussian16/AVX/g16/l9999.exe)
 Electronic transition elements 
                 1             2             3             4             5 
      1  -0.385352D+03 -0.385312D+03 -0.385301D+03 -0.385299D+03 -0.385294D+03
      2   0.000000D+00  0.000000D+00  0.000000D+00  0.000000D+00  0.000000D+00
      3   0.000000D+00  0.000000D+00  0.000000D+00  0.000000D+00  0.000000D+00
      4   0.000000D+00  0.000000D+00  0.000000D+00  0.000000D+00  0.000000D+00
      5   0.000000D+00  0.000000D+00  0.000000D+00  0.000000D+00  0.000000D+00
      6   0.000000D+00  0.000000D+00  0.000000D+00  0.000000D+00  0.000000D+00
      7   0.000000D+00  0.000000D+00  0.000000D+00  0.000000D+00  0.000000D+00
      8   0.000000D+00  0.000000D+00  0.000000D+00  0.000000D+00  0.000000D+00
      9   0.000000D+00  0.000000D+00  0.000000D+00  0.000000D+00  0.000000D+00
     10   0.000000D+00  0.000000D+00  0.000000D+00  0.000000D+00  0.000000D+00
     11   0.000000D+00  0.000000D+00  0.000000D+00  0.000000D+00  0.000000D+00
     12   0.000000D+00  0.000000D+00  0.000000D+00  0.000000D+00  0.000000D+00
     13   0.000000D+00  0.000000D+00  0.000000D+00  0.000000D+00  0.000000D+00
     14   0.000000D+00  0.000000D+00  0.000000D+00  0.000000D+00  0.000000D+00
     15   0.000000D+00  0.000000D+00  0.000000D+00  0.000000D+00  0.000000D+00
     16   0.000000D+00  0.000000D+00  0.000000D+00  0.000000D+00  0.000000D+00
                 6             7             8             9            10 
      1  -0.385292D+03 -0.385289D+03 -0.385259D+03 -0.385244D+03 -0.385242D+03
      2   0.265294D-01  0.000000D+00  0.000000D+00  0.000000D+00  0.000000D+00
      3   0.000000D+00  0.100287D+01  0.000000D+00  0.000000D+00  0.000000D+00
      4   0.000000D+00  0.000000D+00  0.000000D+00  0.000000D+00  0.000000D+00
      5   0.768033D-02  0.000000D+00  0.000000D+00  0.000000D+00  0.000000D+00
      6   0.000000D+00  0.152443D-01  0.000000D+00  0.000000D+00  0.000000D+00
      7   0.000000D+00  0.000000D+00  0.000000D+00  0.000000D+00  0.000000D+00
      8   0.000000D+00  0.000000D+00  0.000000D+00  0.000000D+00  0.000000D+00
      9   0.000000D+00  0.000000D+00  0.000000D+00  0.000000D+00  0.000000D+00
     10   0.000000D+00  0.000000D+00  0.000000D+00  0.000000D+00  0.429538D+00
     11   0.000000D+00  0.000000D+00  0.000000D+00  0.000000D+00  0.000000D+00
     12   0.000000D+00  0.000000D+00  0.000000D+00  0.000000D+00  0.000000D+00
     13   0.000000D+00  0.000000D+00  0.000000D+00  0.000000D+00  0.000000D+00
     14   0.000000D+00  0.000000D+00  0.000000D+00  0.000000D+00 -0.568589D-02
     15   0.000000D+00  0.000000D+00  0.000000D+00  0.000000D+00  0.000000D+00
     16   0.000000D+00  0.000000D+00  0.000000D+00  0.000000D+00  0.000000D+00
                11            12            13            14            15 
      1  -0.385233D+03 -0.385230D+03 -0.385227D+03 -0.385223D+03 -0.385222D+03
      2   0.000000D+00  0.374406D+01  0.000000D+00  0.000000D+00  0.000000D+00
      3   0.000000D+00  0.000000D+00  0.000000D+00  0.000000D+00  0.000000D+00
      4   0.000000D+00  0.000000D+00  0.000000D+00  0.000000D+00  0.000000D+00
      5   0.000000D+00 -0.385701D+00  0.000000D+00  0.000000D+00  0.000000D+00
      6   0.000000D+00  0.000000D+00  0.000000D+00  0.000000D+00  0.000000D+00
      7   0.000000D+00  0.000000D+00  0.000000D+00  0.000000D+00  0.000000D+00
      8   0.000000D+00  0.000000D+00  0.000000D+00  0.000000D+00  0.000000D+00
      9   0.000000D+00  0.000000D+00  0.000000D+00  0.000000D+00  0.000000D+00
     10   0.000000D+00  0.000000D+00  0.000000D+00  0.000000D+00  0.000000D+00
     11   0.000000D+00  0.000000D+00  0.000000D+00 -0.320501D-01  0.000000D+00
     12   0.000000D+00  0.000000D+00  0.000000D+00  0.878380D-01  0.000000D+00
     13   0.000000D+00  0.000000D+00  0.000000D+00 -0.905111D-02  0.000000D+00
     14   0.000000D+00  0.000000D+00  0.000000D+00  0.000000D+00  0.000000D+00
     15   0.000000D+00  0.000000D+00  0.000000D+00  0.000000D+00  0.000000D+00
     16   0.000000D+00  0.000000D+00  0.000000D+00  0.000000D+00  0.000000D+00
                16            17            18            19            20 
      1  -0.385219D+03 -0.385214D+03 -0.385207D+03 -0.385206D+03 -0.385193D+03
      2   0.000000D+00  0.000000D+00  0.000000D+00  0.000000D+00  0.000000D+00
      3  -0.150549D+01  0.000000D+00  0.000000D+00  0.000000D+00  0.000000D+00
      4   0.000000D+00  0.000000D+00  0.000000D+00  0.000000D+00  0.000000D+00
      5   0.000000D+00  0.000000D+00  0.000000D+00  0.000000D+00  0.000000D+00
      6   0.864425D-01  0.000000D+00  0.000000D+00  0.000000D+00  0.000000D+00
      7   0.000000D+00  0.000000D+00  0.000000D+00  0.000000D+00  0.000000D+00
      8   0.000000D+00  0.000000D+00 -0.104278D+00  0.000000D+00  0.000000D+00
      9   0.000000D+00  0.269664D+00  0.000000D+00  0.000000D+00  0.000000D+00
     10   0.000000D+00  0.000000D+00  0.000000D+00  0.128478D+01  0.000000D+00
     11   0.000000D+00  0.000000D+00  0.000000D+00  0.000000D+00 -0.996480D-01
     12   0.000000D+00  0.000000D+00  0.000000D+00  0.000000D+00 -0.949083D-01
     13   0.000000D+00  0.000000D+00  0.000000D+00  0.000000D+00  0.403639D-02
     14   0.000000D+00  0.000000D+00  0.000000D+00  0.390415D+00  0.000000D+00
     15   0.000000D+00 -0.102524D+00  0.000000D+00  0.000000D+00  0.000000D+00
     16   0.000000D+00  0.000000D+00 -0.397430D-01  0.000000D+00  0.000000D+00
 Unable to Open any file for archive entry.
 1\1\GINC-KENNEDY41\SP\RPBE1PBE TDA-FC\6-31G(d,p)\C10H8\OSL\07-Jun-2022
 \0\\#p TDA=(50-50, nstates=10) PBE1PBE/6-31G(d,p) SCRF=(Solvent=Toluen
 e) EmpiricalDispersion=(GD3BJ) Symmetry=(Tight) Population=(Regular) D
 ensity=(Current) 6D 10F GFInput\\Naphthalene_Excited_States_TDA_10_Sin
 glets_10_Triplets_PBE1PBE__GD3BJ__Toluene_6_31G_d_p_\\0,1\C,0,-1.24046
 ,-1.39914,0.\C,0,-2.426,-0.70664,0.\C,0,-2.426,0.70664,0.\C,0,-1.24046
 ,1.39914,0.\C,0,0.,0.71423,0.\C,0,0.,-0.71423,0.\C,0,1.24046,-1.39914,
 0.\C,0,1.24046,1.39914,0.\C,0,2.426,0.70664,0.\C,0,2.426,-0.70664,0.\H
 ,0,-1.2367,-2.4862,0.\H,0,-3.3697,-1.24397,0.\H,0,-3.3697,1.24397,0.\H
 ,0,-1.2367,2.4862,0.\H,0,1.2367,-2.4862,0.\H,0,1.2367,2.4862,0.\H,0,3.
 3697,1.24397,0.\H,0,3.3697,-1.24397,0.\\Version=ES64L-G16RevC.01\State
 =1-AG\HF=-385.463302\RMSD=7.529e-09\Dipole=0.,0.,0.\Quadrupole=2.83532
 5,3.4177315,-6.2530564,0.,0.,0.\PG=D02H [C2"(C1.C1),SG(C8H8)]\\@
 The archive entry for this job was punched.


            THE IRISH PIG
 'TWAS AN EVENING IN NOVEMBER,
 AS I VERY WELL REMEMBER
 I WAS STROLLING DOWN THE STREET IN DRUNKEN PRIDE,
 BUT MY KNEES WERE ALL A'FLUTTER
 SO I LANDED IN THE GUTTER,
 AND A PIG CAME UP AND LAY DOWN BY MY SIDE.

 YES, I LAY THERE IN THE GUTTER
 THINKING THOUGHTS I COULD NOT UTTER
 WHEN A COLLEEN PASSING BY DID SOFTLY SAY,
 'YE CAN TELL A MAN THAT BOOZES
 BY THE COMPANY THAT HE CHOOSES.' -
 AT THAT, THE PIG GOT UP AND WALKED AWAY!
     -- THE ECONOMIST, AUGUST 23, 1986
 Job cpu time:       0 days  0 hours 17 minutes 13.9 seconds.
 Elapsed time:       0 days  0 hours  4 minutes 21.6 seconds.
 File lengths (MBytes):  RWF=    554 Int=      0 D2E=      0 Chk=     38 Scr=      2
 Normal termination of Gaussian 16 at Tue Jun  7 16:48:19 2022.
