18
/gpfs1/home/osl/test/Naphthalene/Gaussian 16 Optimisation Frequencies PBE1PBE (GD3BJ) Toluene 6-31G(d,p)/Output/Naphthalene.log	Energy: -241881.8719658
C         -1.24046       -1.39914       -0.00000
C         -2.42600       -0.70664       -0.00000
C         -2.42600        0.70664        0.00000
C         -1.24046        1.39914        0.00000
C          0.00000        0.71423       -0.00000
C          0.00000       -0.71423       -0.00000
C          1.24046       -1.39914        0.00000
C          1.24046        1.39914       -0.00000
C          2.42600        0.70664       -0.00000
C          2.42600       -0.70664        0.00000
H         -1.23670       -2.48620       -0.00000
H         -3.36970       -1.24397        0.00000
H         -3.36970        1.24397       -0.00000
H         -1.23670        2.48620        0.00000
H          1.23670       -2.48620        0.00000
H          1.23670        2.48620       -0.00000
H          3.36970        1.24397        0.00000
H          3.36970       -1.24397       -0.00000
