Pyridine_Optimisation_Frequencies_PBE1PBE__GD3BJ__Toluene_6_31G_d_p_    
Freq      RPBE1PBE                                                    6-31G(d,p)          
Number of atoms                            I               11
Info1-9                                    I   N=           9
          21          21        1002           0           0         100
           6          18       -1302
Full Title                                 C   N=           6
Pyridine_Optimisation_Frequencies_PBE1PBE__GD3BJ__Toluene_6_
31G_d_p_    
Route                                      C   N=          12
#p Opt Freq PBE1PBE/6-31G(d,p) SCRF=(Solvent=Toluene) Empiri
calDispersion=(GD3BJ) Symmetry=(Tight) Population=(Regular) 
Density=(Current)       
Charge                                     I                0
Multiplicity                               I                1
Number of electrons                        I               42
Number of alpha electrons                  I               21
Number of beta electrons                   I               21
Number of basis functions                  I              115
Number of independent functions            I              115
Number of point charges in /Mol/           I                0
Number of translation vectors              I                0
Atomic numbers                             I   N=          11
           6           6           6           6           6           7
           1           1           1           1           1
Nuclear charges                            R   N=          11
  6.00000000E+00  6.00000000E+00  6.00000000E+00  6.00000000E+00  6.00000000E+00
  7.00000000E+00  1.00000000E+00  1.00000000E+00  1.00000000E+00  1.00000000E+00
  1.00000000E+00
Current cartesian coordinates              R   N=          33
 -2.15175577E+00 -1.36051603E+00  3.69231849E-05 -2.25897494E+00  1.26787812E+00
 -4.11405184E-05 -4.99454105E-05  2.61119523E+00 -3.63622696E-05  2.25893036E+00
  1.26795080E+00 -3.74228166E-05  2.15181004E+00 -1.36043571E+00 -5.16702485E-05
  4.54783574E-05 -2.67814609E+00  1.17818191E-04 -3.88729030E+00 -2.46538925E+00
  6.77996742E-05 -4.07055725E+00  2.22878684E+00 -7.38916423E-05 -7.30767785E-05
  4.66350639E+00 -8.52568297E-05  4.07046861E+00  2.22894289E+00 -3.84923791E-05
  3.88737520E+00 -2.46525867E+00  8.31498474E-05
Number of symbols in /Mol/                 I                0
Int Atom Types                             I   N=          11
           0           0           0           0           0           0
           0           0           0           0           0
Force Field                                I                0
Atom Types                                 C   N=          11
                                                            
                                                            
            
MM charges                                 R   N=          11
  0.00000000E+00  0.00000000E+00  0.00000000E+00  0.00000000E+00  0.00000000E+00
  0.00000000E+00  0.00000000E+00  0.00000000E+00  0.00000000E+00  0.00000000E+00
  0.00000000E+00
Integer atomic weights                     I   N=          11
          12          12          12          12          12          14
           1           1           1           1           1
Real atomic weights                        R   N=          11
  1.20000000E+01  1.20000000E+01  1.20000000E+01  1.20000000E+01  1.20000000E+01
  1.40030740E+01  1.00782504E+00  1.00782504E+00  1.00782504E+00  1.00782504E+00
  1.00782504E+00
Atom fragment info                         I   N=          11
           0           0           0           0           0           0
           0           0           0           0           0
Atom residue num                           I   N=          11
           0           0           0           0           0           0
           0           0           0           0           0
Nuclear spins                              I   N=          11
           0           0           0           0           0           2
           1           1           1           1           1
Nuclear ZEff                               R   N=          11
 -3.60000000E+00 -3.60000000E+00 -3.60000000E+00 -3.60000000E+00 -3.60000000E+00
 -4.55000000E+00 -1.00000000E+00 -1.00000000E+00 -1.00000000E+00 -1.00000000E+00
 -1.00000000E+00
Nuclear ZNuc                               R   N=          11
  6.00000000E+00  6.00000000E+00  6.00000000E+00  6.00000000E+00  6.00000000E+00
  7.00000000E+00  1.00000000E+00  1.00000000E+00  1.00000000E+00  1.00000000E+00
  1.00000000E+00
Nuclear QMom                               R   N=          11
  0.00000000E+00  0.00000000E+00  0.00000000E+00  0.00000000E+00  0.00000000E+00
  2.04400000E+00  0.00000000E+00  0.00000000E+00  0.00000000E+00  0.00000000E+00
  0.00000000E+00
Nuclear GFac                               R   N=          11
  0.00000000E+00  0.00000000E+00  0.00000000E+00  0.00000000E+00  0.00000000E+00
  4.03761000E-01  2.79284600E+00  2.79284600E+00  2.79284600E+00  2.79284600E+00
  2.79284600E+00
MicOpt                                     I   N=          11
          -1          -1          -1          -1          -1          -1
          -1          -1          -1          -1          -1
Number of residues                         I                0
Number of secondary structures             I                0
Redundant internal dimensions              I   N=           4
          47          11          16          20
Redundant internal coordinate indices      I   N=         188
           1           2           0           0           1           6
           0           0           1           7           0           0
           2           3           0           0           2           8
           0           0           3           4           0           0
           3           9           0           0           4           5
           0           0           4          10           0           0
           5           6           0           0           5          11
           0           0           2           1           6           0
           2           1           7           0           6           1
           7           0           1           2           3           0
           1           2           8           0           3           2
           8           0           2           3           4           0
           2           3           9           0           4           3
           9           0           3           4           5           0
           3           4          10           0           5           4
          10           0           4           5           6           0
           4           5          11           0           6           5
          11           0           1           6           5           0
           6           1           2           3           6           1
           2           8           7           1           2           3
           7           1           2           8           2           1
           6           5           7           1           6           5
           1           2           3           4           1           2
           3           9           8           2           3           4
           8           2           3           9           2           3
           4           5           2           3           4          10
           9           3           4           5           9           3
           4          10           3           4           5           6
           3           4           5          11          10           4
           5           6          10           4           5          11
           4           5           6           1          11           5
           6           1
Redundant internal coordinates             R   N=          47
  2.63058012E+00  2.52317213E+00  2.05738304E+00  2.62816342E+00  2.05065259E+00
  2.62817382E+00  2.05231117E+00  2.63056846E+00  2.05065273E+00  2.52318279E+00
  2.05738188E+00  2.16100871E+00  2.09693681E+00  2.02523979E+00  2.06651815E+00
  2.09925677E+00  2.11741038E+00  2.06864342E+00  2.10727693E+00  2.10726495E+00
  2.06652106E+00  2.11739892E+00  2.09926533E+00  2.16100602E+00  2.09694563E+00
  2.02523365E+00  2.04267324E+00  5.96791041E-07 -3.14157511E+00  3.14157442E+00
 -1.28901504E-06 -7.75337459E-05  3.14153324E+00  3.61670675E-05 -3.14158673E+00
 -3.14157362E+00 -1.12104180E-05  3.65054120E-06  3.14159000E+00 -3.14155876E+00
  2.75929433E-05 -8.69485412E-05 -3.14151620E+00  3.14151194E+00  8.26909393E-05
  1.21789583E-04  3.14155718E+00
ZRed-IntVec                                I   N=          47
           0           0           0           0           0           0
           0           0           0           0           0           0
           0           0           0           0           0           0
           0           0           0           0           0           0
           0           0           0           0           0           0
           0           0           0           0           0           0
           0           0           0           0           0           0
           0           0           0           0           0
ZRed-FPVec                                 R   N=          47
  0.00000000E+00  0.00000000E+00  0.00000000E+00  0.00000000E+00  0.00000000E+00
  0.00000000E+00  0.00000000E+00  0.00000000E+00  0.00000000E+00  0.00000000E+00
  0.00000000E+00  0.00000000E+00  0.00000000E+00  0.00000000E+00  0.00000000E+00
  0.00000000E+00  0.00000000E+00  0.00000000E+00  0.00000000E+00  0.00000000E+00
  0.00000000E+00  0.00000000E+00  0.00000000E+00  0.00000000E+00  0.00000000E+00
  0.00000000E+00  0.00000000E+00  0.00000000E+00  0.00000000E+00  0.00000000E+00
  0.00000000E+00  0.00000000E+00  0.00000000E+00  0.00000000E+00  0.00000000E+00
  0.00000000E+00  0.00000000E+00  0.00000000E+00  0.00000000E+00  0.00000000E+00
  0.00000000E+00  0.00000000E+00  0.00000000E+00  0.00000000E+00  0.00000000E+00
  0.00000000E+00  0.00000000E+00
ZRed-Constraint1                           R   N=          47
  2.63058012E+00  2.52317213E+00  2.05738304E+00  2.62816342E+00  2.05065259E+00
  2.62817382E+00  2.05231117E+00  2.63056846E+00  2.05065273E+00  2.52318279E+00
  2.05738188E+00  2.16100871E+00  2.09693681E+00  2.02523979E+00  2.06651815E+00
  2.09925677E+00  2.11741038E+00  2.06864342E+00  2.10727693E+00  2.10726495E+00
  2.06652106E+00  2.11739892E+00  2.09926533E+00  2.16100602E+00  2.09694563E+00
  2.02523365E+00  2.04267324E+00  5.96791041E-07 -3.14157511E+00  3.14157442E+00
 -1.28901504E-06 -7.75337459E-05  3.14153324E+00  3.61670645E-05 -3.14158673E+00
 -3.14157362E+00 -1.12104180E-05  3.65051079E-06  3.14159000E+00 -3.14155876E+00
  2.75929433E-05 -8.69485412E-05 -3.14151620E+00  3.14151194E+00  8.26909434E-05
  1.21789583E-04  3.14155718E+00
ZRed-Constraint2                           R   N=          47
  2.63193511E+00  2.63183511E+00  2.05260275E+00  2.63178653E+00  2.05261312E+00
  2.63194276E+00  2.05263954E+00  2.63182171E+00  2.05260603E+00  2.63188289E+00
  2.05260872E+00  2.09437312E+00  2.09434970E+00  2.09446249E+00  2.09435553E+00
  2.09435196E+00  2.09447770E+00  2.09447192E+00  2.09443517E+00  2.09427809E+00
  2.09433629E+00  2.09438302E+00  2.09446599E+00  2.09439736E+00  2.09436355E+00
  2.09442425E+00  2.09443629E+00 -1.57521487E-04 -3.14122974E+00  3.14136773E+00
  2.95507071E-04 -2.23866080E-04  3.14143620E+00  3.56521660E-04  3.14140977E+00
  3.14142871E+00 -7.03350662E-04 -1.74124559E-04  3.14144212E+00 -3.14122742E+00
  3.88821856E-04 -2.07273749E-04 -3.14122506E+00  3.14136179E+00  3.43997471E-04
  4.06271054E-04  3.14142404E+00
SymInf integers                            I   N=          26
           1           1           1           1           1           0
           0           0           0           0           0           0
           0           0           0           0           0           0
           0           0           0           0           0           0
           0           0
RotTr to input orientation                 R   N=          12
  9.99999950E-01 -3.16263169E-04 -0.00000000E+00 -3.16263169E-04 -9.99999950E-01
  0.00000000E+00 -0.00000000E+00 -0.00000000E+00 -1.00000000E+00 -1.94068653E-05
 -6.78167713E-02 -3.62451372E-05
Number of contracted shells                I               39
Number of primitive shells                 I               91
Pure/Cartesian d shells                    I                1
Pure/Cartesian f shells                    I                0
Highest angular momentum                   I                2
Largest degree of contraction              I                6
Shell types                                I   N=          39
           0          -1          -1           2           0          -1
          -1           2           0          -1          -1           2
           0          -1          -1           2           0          -1
          -1           2           0          -1          -1           2
           0           0           1           0           0           1
           0           0           1           0           0           1
           0           0           1
Number of primitives per shell             I   N=          39
           6           3           1           1           6           3
           1           1           6           3           1           1
           6           3           1           1           6           3
           1           1           6           3           1           1
           3           1           1           3           1           1
           3           1           1           3           1           1
           3           1           1
Shell to atom map                          I   N=          39
           1           1           1           1           2           2
           2           2           3           3           3           3
           4           4           4           4           5           5
           5           5           6           6           6           6
           7           7           7           8           8           8
           9           9           9          10          10          10
          11          11          11
Primitive exponents                        R   N=          91
  3.04752488E+03  4.57369518E+02  1.03948685E+02  2.92101553E+01  9.28666296E+00
  3.16392696E+00  7.86827235E+00  1.88128854E+00  5.44249258E-01  1.68714478E-01
  8.00000000E-01  3.04752488E+03  4.57369518E+02  1.03948685E+02  2.92101553E+01
  9.28666296E+00  3.16392696E+00  7.86827235E+00  1.88128854E+00  5.44249258E-01
  1.68714478E-01  8.00000000E-01  3.04752488E+03  4.57369518E+02  1.03948685E+02
  2.92101553E+01  9.28666296E+00  3.16392696E+00  7.86827235E+00  1.88128854E+00
  5.44249258E-01  1.68714478E-01  8.00000000E-01  3.04752488E+03  4.57369518E+02
  1.03948685E+02  2.92101553E+01  9.28666296E+00  3.16392696E+00  7.86827235E+00
  1.88128854E+00  5.44249258E-01  1.68714478E-01  8.00000000E-01  3.04752488E+03
  4.57369518E+02  1.03948685E+02  2.92101553E+01  9.28666296E+00  3.16392696E+00
  7.86827235E+00  1.88128854E+00  5.44249258E-01  1.68714478E-01  8.00000000E-01
  4.17351146E+03  6.27457911E+02  1.42902093E+02  4.02343293E+01  1.28202129E+01
  4.39043701E+00  1.16263619E+01  2.71627981E+00  7.72218397E-01  2.12031498E-01
  8.00000000E-01  1.87311370E+01  2.82539436E+00  6.40121692E-01  1.61277759E-01
  1.10000000E+00  1.87311370E+01  2.82539436E+00  6.40121692E-01  1.61277759E-01
  1.10000000E+00  1.87311370E+01  2.82539436E+00  6.40121692E-01  1.61277759E-01
  1.10000000E+00  1.87311370E+01  2.82539436E+00  6.40121692E-01  1.61277759E-01
  1.10000000E+00  1.87311370E+01  2.82539436E+00  6.40121692E-01  1.61277759E-01
  1.10000000E+00
Contraction coefficients                   R   N=          91
  1.83473713E-03  1.40373228E-02  6.88426223E-02  2.32184443E-01  4.67941348E-01
  3.62311985E-01 -1.19332420E-01 -1.60854152E-01  1.14345644E+00  1.00000000E+00
  1.00000000E+00  1.83473713E-03  1.40373228E-02  6.88426223E-02  2.32184443E-01
  4.67941348E-01  3.62311985E-01 -1.19332420E-01 -1.60854152E-01  1.14345644E+00
  1.00000000E+00  1.00000000E+00  1.83473713E-03  1.40373228E-02  6.88426223E-02
  2.32184443E-01  4.67941348E-01  3.62311985E-01 -1.19332420E-01 -1.60854152E-01
  1.14345644E+00  1.00000000E+00  1.00000000E+00  1.83473713E-03  1.40373228E-02
  6.88426223E-02  2.32184443E-01  4.67941348E-01  3.62311985E-01 -1.19332420E-01
 -1.60854152E-01  1.14345644E+00  1.00000000E+00  1.00000000E+00  1.83473713E-03
  1.40373228E-02  6.88426223E-02  2.32184443E-01  4.67941348E-01  3.62311985E-01
 -1.19332420E-01 -1.60854152E-01  1.14345644E+00  1.00000000E+00  1.00000000E+00
  1.83477216E-03  1.39946270E-02  6.85865518E-02  2.32240873E-01  4.69069948E-01
  3.60455199E-01 -1.14961182E-01 -1.69117479E-01  1.14585195E+00  1.00000000E+00
  1.00000000E+00  3.34946043E-02  2.34726953E-01  8.13757326E-01  1.00000000E+00
  1.00000000E+00  3.34946043E-02  2.34726953E-01  8.13757326E-01  1.00000000E+00
  1.00000000E+00  3.34946043E-02  2.34726953E-01  8.13757326E-01  1.00000000E+00
  1.00000000E+00  3.34946043E-02  2.34726953E-01  8.13757326E-01  1.00000000E+00
  1.00000000E+00  3.34946043E-02  2.34726953E-01  8.13757326E-01  1.00000000E+00
  1.00000000E+00
P(S=P) Contraction coefficients            R   N=          91
  0.00000000E+00  0.00000000E+00  0.00000000E+00  0.00000000E+00  0.00000000E+00
  0.00000000E+00  6.89990666E-02  3.16423961E-01  7.44308291E-01  1.00000000E+00
  0.00000000E+00  0.00000000E+00  0.00000000E+00  0.00000000E+00  0.00000000E+00
  0.00000000E+00  0.00000000E+00  6.89990666E-02  3.16423961E-01  7.44308291E-01
  1.00000000E+00  0.00000000E+00  0.00000000E+00  0.00000000E+00  0.00000000E+00
  0.00000000E+00  0.00000000E+00  0.00000000E+00  6.89990666E-02  3.16423961E-01
  7.44308291E-01  1.00000000E+00  0.00000000E+00  0.00000000E+00  0.00000000E+00
  0.00000000E+00  0.00000000E+00  0.00000000E+00  0.00000000E+00  6.89990666E-02
  3.16423961E-01  7.44308291E-01  1.00000000E+00  0.00000000E+00  0.00000000E+00
  0.00000000E+00  0.00000000E+00  0.00000000E+00  0.00000000E+00  0.00000000E+00
  6.89990666E-02  3.16423961E-01  7.44308291E-01  1.00000000E+00  0.00000000E+00
  0.00000000E+00  0.00000000E+00  0.00000000E+00  0.00000000E+00  0.00000000E+00
  0.00000000E+00  6.75797439E-02  3.23907296E-01  7.40895140E-01  1.00000000E+00
  0.00000000E+00  0.00000000E+00  0.00000000E+00  0.00000000E+00  0.00000000E+00
  0.00000000E+00  0.00000000E+00  0.00000000E+00  0.00000000E+00  0.00000000E+00
  0.00000000E+00  0.00000000E+00  0.00000000E+00  0.00000000E+00  0.00000000E+00
  0.00000000E+00  0.00000000E+00  0.00000000E+00  0.00000000E+00  0.00000000E+00
  0.00000000E+00  0.00000000E+00  0.00000000E+00  0.00000000E+00  0.00000000E+00
  0.00000000E+00
Coordinates of each shell                  R   N=         117
 -2.15175577E+00 -1.36051603E+00  3.69231849E-05 -2.15175577E+00 -1.36051603E+00
  3.69231849E-05 -2.15175577E+00 -1.36051603E+00  3.69231849E-05 -2.15175577E+00
 -1.36051603E+00  3.69231849E-05 -2.25897494E+00  1.26787812E+00 -4.11405184E-05
 -2.25897494E+00  1.26787812E+00 -4.11405184E-05 -2.25897494E+00  1.26787812E+00
 -4.11405184E-05 -2.25897494E+00  1.26787812E+00 -4.11405184E-05 -4.99454105E-05
  2.61119523E+00 -3.63622696E-05 -4.99454105E-05  2.61119523E+00 -3.63622696E-05
 -4.99454105E-05  2.61119523E+00 -3.63622696E-05 -4.99454105E-05  2.61119523E+00
 -3.63622696E-05  2.25893036E+00  1.26795080E+00 -3.74228166E-05  2.25893036E+00
  1.26795080E+00 -3.74228166E-05  2.25893036E+00  1.26795080E+00 -3.74228166E-05
  2.25893036E+00  1.26795080E+00 -3.74228166E-05  2.15181004E+00 -1.36043571E+00
 -5.16702485E-05  2.15181004E+00 -1.36043571E+00 -5.16702485E-05  2.15181004E+00
 -1.36043571E+00 -5.16702485E-05  2.15181004E+00 -1.36043571E+00 -5.16702485E-05
  4.54783574E-05 -2.67814609E+00  1.17818191E-04  4.54783574E-05 -2.67814609E+00
  1.17818191E-04  4.54783574E-05 -2.67814609E+00  1.17818191E-04  4.54783574E-05
 -2.67814609E+00  1.17818191E-04 -3.88729030E+00 -2.46538925E+00  6.77996742E-05
 -3.88729030E+00 -2.46538925E+00  6.77996742E-05 -3.88729030E+00 -2.46538925E+00
  6.77996742E-05 -4.07055725E+00  2.22878684E+00 -7.38916423E-05 -4.07055725E+00
  2.22878684E+00 -7.38916423E-05 -4.07055725E+00  2.22878684E+00 -7.38916423E-05
 -7.30767785E-05  4.66350639E+00 -8.52568297E-05 -7.30767785E-05  4.66350639E+00
 -8.52568297E-05 -7.30767785E-05  4.66350639E+00 -8.52568297E-05  4.07046861E+00
  2.22894289E+00 -3.84923791E-05  4.07046861E+00  2.22894289E+00 -3.84923791E-05
  4.07046861E+00  2.22894289E+00 -3.84923791E-05  3.88737520E+00 -2.46525867E+00
  8.31498474E-05  3.88737520E+00 -2.46525867E+00  8.31498474E-05  3.88737520E+00
 -2.46525867E+00  8.31498474E-05
Num ILSW                                   I              100
ILSW                                       I   N=         100
           0           1           0           0           2           0
           0           0           0           0        1009          -1
           5           0           0           0           2           0
           0           0           0           0           1           0
           1           0           0           0           0           0
           0           0      100000           0          -1           0
           0           0           0           0           0           0
           0           0           0           1           0           0
           0 -2000000000           1           0           0           0
           0           0         141          52           0           0
           0           0          13           0           0           0
           0           0           0          11           0           1
           0           0           0           0           0           0
           0           0           0           0           0           0
           0           0           0           0           0           0
           0           0           0           0           0           0
           0           0           0           0
Num RLSW                                   I               52
RLSW                                       R   N=          52
  7.50000000E-01  7.50000000E-01  1.00000000E+00  1.00000000E+00  2.50000000E-01
  0.00000000E+00  0.00000000E+00  1.00000000E+00  0.00000000E+00  0.00000000E+00
  0.00000000E+00  0.00000000E+00  1.00000000E+00  0.00000000E+00  0.00000000E+00
  0.00000000E+00  0.00000000E+00  1.00000000E+00  0.00000000E+00  0.00000000E+00
  0.00000000E+00  0.00000000E+00  1.00000000E+00  0.00000000E+00  0.00000000E+00
  0.00000000E+00  0.00000000E+00  1.00000000E+00  0.00000000E+00  0.00000000E+00
  0.00000000E+00  0.00000000E+00  1.00000000E+00  0.00000000E+00  0.00000000E+00
  0.00000000E+00  0.00000000E+00  0.00000000E+00  1.00000000E+00  1.00000000E+00
  0.00000000E+00  1.00000000E+00  0.00000000E+00  0.00000000E+00  0.00000000E+00
  0.00000000E+00  0.00000000E+00  0.00000000E+00  0.00000000E+00  0.00000000E+00
  0.00000000E+00  0.00000000E+00
MxBond                                     I                3
NBond                                      I   N=          11
           3           3           3           3           3           2
           1           1           1           1           1
IBond                                      I   N=          33
           2           6           7           1           3           8
           2           4           9           3           5          10
           4           6          11           1           5           0
           1           0           0           2           0           0
           3           0           0           4           0           0
           5           0           0
RBond                                      R   N=          33
  1.50000000E+00  1.00000000E+00  1.00000000E+00  1.50000000E+00  1.50000000E+00
  1.00000000E+00  1.50000000E+00  1.50000000E+00  1.00000000E+00  1.50000000E+00
  1.50000000E+00  1.00000000E+00  1.50000000E+00  1.00000000E+00  1.00000000E+00
  1.00000000E+00  1.00000000E+00  0.00000000E+00  1.00000000E+00  0.00000000E+00
  0.00000000E+00  1.00000000E+00  0.00000000E+00  0.00000000E+00  1.00000000E+00
  0.00000000E+00  0.00000000E+00  1.00000000E+00  0.00000000E+00  0.00000000E+00
  1.00000000E+00  0.00000000E+00  0.00000000E+00
Virial Ratio                               R      2.008863677023360E+00
SCF Energy                                 R     -2.480069601046988E+02
Total Energy                               R     -2.480069601046988E+02
RMS Force                                  R      1.016324567752689E-04
RMS Density                                R      1.170702801140123E-09
NImag                                      I                0
Job Status                                 I                1
Nuclear derivative order                   I                2
Thermal Energy                             R     -2.479130507758316E+02
Thermal Enthalpy                           R     -2.479121065910179E+02
Thermal Free Energy                        R     -2.479447079486703E+02
PCM-NSphere                                I               11
PCM-NGenSphere                             I               11
PCM-NOrd                                   I   N=          11
           1           2           3           4           5           6
           7           8           9          10          11
PCM-SphereRadii                            R   N=          11
  4.00253442E+00  4.00253442E+00  4.00253442E+00  4.00253442E+00  4.00253442E+00
  3.80401869E+00  2.99956228E+00  2.99956228E+00  2.99956228E+00  2.99956228E+00
  2.99956228E+00
PCM-SphereLoc                              R   N=          33
 -2.15175577E+00 -1.36051603E+00  3.69231849E-05 -2.25897494E+00  1.26787812E+00
 -4.11405184E-05 -4.99454105E-05  2.61119523E+00 -3.63622696E-05  2.25893036E+00
  1.26795080E+00 -3.74228166E-05  2.15181004E+00 -1.36043571E+00 -5.16702485E-05
  4.54783574E-05 -2.67814609E+00  1.17818191E-04 -3.88729030E+00 -2.46538925E+00
  6.77996742E-05 -4.07055725E+00  2.22878684E+00 -7.38916423E-05 -7.30767785E-05
  4.66350639E+00 -8.52568297E-05  4.07046861E+00  2.22894289E+00 -3.84923791E-05
  3.88737520E+00 -2.46525867E+00  8.31498474E-05
External E-field                           R   N=          35
  0.00000000E+00  0.00000000E+00  0.00000000E+00  0.00000000E+00  0.00000000E+00
  0.00000000E+00  0.00000000E+00  0.00000000E+00  0.00000000E+00  0.00000000E+00
  0.00000000E+00  0.00000000E+00  0.00000000E+00  0.00000000E+00  0.00000000E+00
  0.00000000E+00  0.00000000E+00  0.00000000E+00  0.00000000E+00  0.00000000E+00
  0.00000000E+00  0.00000000E+00  0.00000000E+00  0.00000000E+00  0.00000000E+00
  0.00000000E+00  0.00000000E+00  0.00000000E+00  0.00000000E+00  0.00000000E+00
  0.00000000E+00  0.00000000E+00  0.00000000E+00  0.00000000E+00  0.00000000E+00
IOpCl                                      I                0
IROHF                                      I                0
Alpha Orbital Energies                     R   N=         115
 -1.43972780E+01 -1.02709121E+01 -1.02709029E+01 -1.02583242E+01 -1.02479649E+01
 -1.02479474E+01 -9.70013147E-01 -8.28506836E-01 -7.84216473E-01 -6.48076535E-01
 -6.45774297E-01 -5.43419120E-01 -4.93244699E-01 -4.81931752E-01 -4.39178750E-01
 -4.14453801E-01 -4.13074179E-01 -3.72358558E-01 -2.99651449E-01 -2.73685598E-01
 -2.67641871E-01 -1.87287003E-02 -5.21805177E-03  1.07705523E-01  1.54423158E-01
  1.56407044E-01  1.70654497E-01  1.92990431E-01  1.94234220E-01  2.49411321E-01
  3.05163779E-01  3.30247152E-01  3.30847997E-01  4.63343074E-01  4.68294810E-01
  5.33872852E-01  5.51020398E-01  5.95350780E-01  6.04819691E-01  6.10197904E-01
  6.11680397E-01  6.16503314E-01  6.20272379E-01  6.62443302E-01  6.76246767E-01
  6.88039162E-01  7.08578460E-01  8.27798762E-01  8.34827257E-01  8.51954064E-01
  8.52002483E-01  8.75732064E-01  8.84114114E-01  9.33366423E-01  9.40684706E-01
  9.80195353E-01  1.05709221E+00  1.07995226E+00  1.11954573E+00  1.17780987E+00
  1.21979162E+00  1.25256429E+00  1.29376684E+00  1.37827419E+00  1.39884316E+00
  1.40856915E+00  1.44722678E+00  1.47503727E+00  1.49011067E+00  1.70540841E+00
  1.75657877E+00  1.79260739E+00  1.81891293E+00  1.90198361E+00  1.93120114E+00
  1.97181662E+00  1.98021943E+00  2.00134703E+00  2.01616616E+00  2.09453902E+00
  2.13656910E+00  2.14956974E+00  2.32068622E+00  2.33230383E+00  2.33520994E+00
  2.38228513E+00  2.38551389E+00  2.41040950E+00  2.43080499E+00  2.45465528E+00
  2.49594435E+00  2.50032493E+00  2.52377405E+00  2.54029304E+00  2.59908146E+00
  2.62225610E+00  2.70959339E+00  2.74883608E+00  2.76812922E+00  2.86744437E+00
  3.00510017E+00  3.05370033E+00  3.20847811E+00  3.25173607E+00  3.26307260E+00
  3.33958827E+00  3.42386779E+00  3.54058015E+00  3.88852840E+00  4.11806368E+00
  4.18006846E+00  4.23036668E+00  4.35610340E+00  4.46561460E+00  4.75859244E+00
Alpha MO coefficients                      R   N=       13225
  3.40056137E-05  3.17467484E-04  9.66775954E-05 -9.48795604E-05  4.17855115E-09
  1.34208662E-03  5.31198817E-04  8.11667828E-04 -2.24976914E-08 -2.55250989E-04
 -2.16760157E-05 -3.92071626E-05  2.19498058E-04 -9.50400276E-09  5.14622104E-09
  1.31665949E-05  1.07853402E-04 -1.94213869E-05  4.45812268E-05 -3.98714468E-09
 -1.56834205E-03 -6.63810567E-04  5.56707242E-04 -1.65789379E-08 -1.48649237E-05
 -5.01663774E-05  4.28768967E-06  7.80188951E-05 -2.00015151E-09  2.98446898E-09
 -1.51064227E-05 -6.05701995E-05 -2.38906426E-10  2.46119149E-05 -3.04381415E-09
  1.14453475E-03  7.66552043E-09 -7.99241672E-04  7.16621809E-09 -2.93999118E-05
 -1.13249566E-05 -3.03996930E-05 -2.57455156E-10 -1.54171307E-09  9.84337545E-10