 Entering Gaussian System, Link 0=g16
 Input=/gpfs1/home/osl/test/Pyridine/Gaussian 16 Optimisation Frequencies PBE1PBE (GD3BJ) Toluene 6-31G(d,p)/Input/Pyridine.com
 Output=/gpfs1/home/osl/test/Pyridine/Gaussian 16 Optimisation Frequencies PBE1PBE (GD3BJ) Toluene 6-31G(d,p)/Output/Pyridine.log
 Initial command:
 /gpfs1/apps/software/Gaussian16/AVX/g16/l1.exe "/scratch/tmp/osl/a791a1897fe8435088dd49f40b2a5747/Gau-48182.inp" -scrdir="/scratch/tmp/osl/a791a1897fe8435088dd49f40b2a5747/"
 Entering Link 1 = /gpfs1/apps/software/Gaussian16/AVX/g16/l1.exe PID=     48184.
  
 Copyright (c) 1988-2019, Gaussian, Inc.  All Rights Reserved.
  
 This is part of the Gaussian(R) 16 program.  It is based on
 the Gaussian(R) 09 system (copyright 2009, Gaussian, Inc.),
 the Gaussian(R) 03 system (copyright 2003, Gaussian, Inc.),
 the Gaussian(R) 98 system (copyright 1998, Gaussian, Inc.),
 the Gaussian(R) 94 system (copyright 1995, Gaussian, Inc.),
 the Gaussian 92(TM) system (copyright 1992, Gaussian, Inc.),
 the Gaussian 90(TM) system (copyright 1990, Gaussian, Inc.),
 the Gaussian 88(TM) system (copyright 1988, Gaussian, Inc.),
 the Gaussian 86(TM) system (copyright 1986, Carnegie Mellon
 University), and the Gaussian 82(TM) system (copyright 1983,
 Carnegie Mellon University). Gaussian is a federally registered
 trademark of Gaussian, Inc.
  
 This software contains proprietary and confidential information,
 including trade secrets, belonging to Gaussian, Inc.
  
 This software is provided under written license and may be
 used, copied, transmitted, or stored only in accord with that
 written license.
  
 The following legend is applicable only to US Government
 contracts under FAR:
  
                    RESTRICTED RIGHTS LEGEND
  
 Use, reproduction and disclosure by the US Government is
 subject to restrictions as set forth in subparagraphs (a)
 and (c) of the Commercial Computer Software - Restricted
 Rights clause in FAR 52.227-19.
  
 Gaussian, Inc.
 340 Quinnipiac St., Bldg. 40, Wallingford CT 06492
  
  
 ---------------------------------------------------------------
 Warning -- This program may not be used in any manner that
 competes with the business of Gaussian, Inc. or will provide
 assistance to any competitor of Gaussian, Inc.  The licensee
 of this program is prohibited from giving any competitor of
 Gaussian, Inc. access to this program.  By using this program,
 the user acknowledges that Gaussian, Inc. is engaged in the
 business of creating and licensing software in the field of
 computational chemistry and represents and warrants to the
 licensee that it is not a competitor of Gaussian, Inc. and that
 it will not use this program in any manner prohibited above.
 ---------------------------------------------------------------
  

 Cite this work as:
 Gaussian 16, Revision C.01,
 M. J. Frisch, G. W. Trucks, H. B. Schlegel, G. E. Scuseria, 
 M. A. Robb, J. R. Cheeseman, G. Scalmani, V. Barone, 
 G. A. Petersson, H. Nakatsuji, X. Li, M. Caricato, A. V. Marenich, 
 J. Bloino, B. G. Janesko, R. Gomperts, B. Mennucci, H. P. Hratchian, 
 J. V. Ortiz, A. F. Izmaylov, J. L. Sonnenberg, D. Williams-Young, 
 F. Ding, F. Lipparini, F. Egidi, J. Goings, B. Peng, A. Petrone, 
 T. Henderson, D. Ranasinghe, V. G. Zakrzewski, J. Gao, N. Rega, 
 G. Zheng, W. Liang, M. Hada, M. Ehara, K. Toyota, R. Fukuda, 
 J. Hasegawa, M. Ishida, T. Nakajima, Y. Honda, O. Kitao, H. Nakai, 
 T. Vreven, K. Throssell, J. A. Montgomery, Jr., J. E. Peralta, 
 F. Ogliaro, M. J. Bearpark, J. J. Heyd, E. N. Brothers, K. N. Kudin, 
 V. N. Staroverov, T. A. Keith, R. Kobayashi, J. Normand, 
 K. Raghavachari, A. P. Rendell, J. C. Burant, S. S. Iyengar, 
 J. Tomasi, M. Cossi, J. M. Millam, M. Klene, C. Adamo, R. Cammi, 
 J. W. Ochterski, R. L. Martin, K. Morokuma, O. Farkas, 
 J. B. Foresman, and D. J. Fox, Gaussian, Inc., Wallingford CT, 2019.
 
 ******************************************
 Gaussian 16:  ES64L-G16RevC.01  3-Jul-2019
                15-Jun-2022 
 ******************************************
 %Chk="Pyridine.chk"
 %Rwf="Pyridine.rwf"
 %NProcShared=4
 Will use up to    4 processors via shared memory.
 %Mem=10GB
 ----------------------------------------------------------------------
 #p Opt Freq PBE1PBE/6-31G(d,p) SCRF=(Solvent=Toluene) EmpiricalDispers
 ion=(GD3BJ) Symmetry=(Tight) Population=(Regular) Density=(Current)
 ----------------------------------------------------------------------
 1/18=20,19=15,26=3,38=1/1,3;
 2/9=110,12=2,40=1/2;
 3/5=1,6=6,7=101,11=2,25=1,30=1,70=2201,71=1,72=13,74=-13,124=41/1,2,3;
 4//1;
 5/5=2,38=5,53=13/2;
 6/22=-1,28=1/1;
 7//1,2,3,16;
 1/18=20,19=15,26=3/3(2);
 2/9=110/2;
 99//99;
 2/9=110/2;
 3/5=1,6=6,7=101,11=2,25=1,30=1,70=2205,71=1,72=13,74=-13,124=41/1,2,3;
 4/5=5,16=3,69=1/1;
 5/5=2,38=5,53=13/2;
 7//1,2,3,16;
 1/18=20,19=15,26=3/3(-5);
 2/9=110/2;
 6/19=2,22=-1,28=1/1;
 99/9=1/99;
 Leave Link    1 at Wed Jun 15 23:22:00 2022, MaxMem=  1342177280 cpu:               0.3 elap:               0.1
 (Enter /gpfs1/apps/software/Gaussian16/AVX/g16/l101.exe)
 --------------------------------------------------------------------
 Pyridine_Optimisation_Frequencies_PBE1PBE__GD3BJ__Toluene_6_31G_d_p_
 --------------------------------------------------------------------
 Symbolic Z-matrix:
 Charge =  0 Multiplicity = 1
 C                    -1.20591   0.69678   0.00001 
 C                    -1.20638  -0.69598   0.00011 
 C                    -0.00049  -1.39268  -0.00011 
 C                     1.20594  -0.69675   0. 
 C                     1.20638   0.69595   0.00012 
 N                     0.00046   1.3927   -0.00012 
 H                    -2.14642   1.24015  -0.00003 
 H                    -2.14726  -1.23872  -0.00013 
 H                    -0.00077  -2.47889   0.00014 
 H                     2.1464   -1.24021  -0.00003 
 H                     2.14724   1.23872  -0.00014 
 
 ITRead=  0  0  0  0  0  0  0  0  0  0  0
 MicOpt= -1 -1 -1 -1 -1 -1 -1 -1 -1 -1 -1
 NAtoms=     11 NQM=       11 NQMF=       0 NMMI=      0 NMMIF=      0
                NMic=       0 NMicF=      0.
                    Isotopes and Nuclear Properties:
 (Nuclear quadrupole moments (NQMom) in fm**2, nuclear magnetic moments (NMagM)
  in nuclear magnetons)

  Atom         1           2           3           4           5           6           7           8           9          10
 IAtWgt=          12          12          12          12          12          14           1           1           1           1
 AtmWgt=  12.0000000  12.0000000  12.0000000  12.0000000  12.0000000  14.0030740   1.0078250   1.0078250   1.0078250   1.0078250
 NucSpn=           0           0           0           0           0           2           1           1           1           1
 AtZEff=  -0.0000000  -0.0000000  -0.0000000  -0.0000000  -0.0000000  -0.0000000  -0.0000000  -0.0000000  -0.0000000  -0.0000000
 NQMom=    0.0000000   0.0000000   0.0000000   0.0000000   0.0000000   2.0440000   0.0000000   0.0000000   0.0000000   0.0000000
 NMagM=    0.0000000   0.0000000   0.0000000   0.0000000   0.0000000   0.4037610   2.7928460   2.7928460   2.7928460   2.7928460
 AtZNuc=   6.0000000   6.0000000   6.0000000   6.0000000   6.0000000   7.0000000   1.0000000   1.0000000   1.0000000   1.0000000

  Atom        11
 IAtWgt=           1
 AtmWgt=   1.0078250
 NucSpn=           1
 AtZEff=  -0.0000000
 NQMom=    0.0000000
 NMagM=    2.7928460
 AtZNuc=   1.0000000
 Leave Link  101 at Wed Jun 15 23:22:01 2022, MaxMem=  1342177280 cpu:               1.9 elap:               0.5
 (Enter /gpfs1/apps/software/Gaussian16/AVX/g16/l103.exe)

 GradGradGradGradGradGradGradGradGradGradGradGradGradGradGradGradGradGrad
 Berny optimization.
 Initialization pass.
                           ----------------------------
                           !    Initial Parameters    !
                           ! (Angstroms and Degrees)  !
 --------------------------                            --------------------------
 ! Name  Definition              Value          Derivative Info.                !
 --------------------------------------------------------------------------------
 ! R1    R(1,2)                  1.3928         estimate D2E/DX2                !
 ! R2    R(1,6)                  1.3927         estimate D2E/DX2                !
 ! R3    R(1,7)                  1.0862         estimate D2E/DX2                !
 ! R4    R(2,3)                  1.3927         estimate D2E/DX2                !
 ! R5    R(2,8)                  1.0862         estimate D2E/DX2                !
 ! R6    R(3,4)                  1.3928         estimate D2E/DX2                !
 ! R7    R(3,9)                  1.0862         estimate D2E/DX2                !
 ! R8    R(4,5)                  1.3927         estimate D2E/DX2                !
 ! R9    R(4,10)                 1.0862         estimate D2E/DX2                !
 ! R10   R(5,6)                  1.3927         estimate D2E/DX2                !
 ! R11   R(5,11)                 1.0862         estimate D2E/DX2                !
 ! A1    A(2,1,6)              119.9987         estimate D2E/DX2                !
 ! A2    A(2,1,7)              119.9974         estimate D2E/DX2                !
 ! A3    A(6,1,7)              120.0039         estimate D2E/DX2                !
 ! A4    A(1,2,3)              119.9977         estimate D2E/DX2                !
 ! A5    A(1,2,8)              119.9975         estimate D2E/DX2                !
 ! A6    A(3,2,8)              120.0047         estimate D2E/DX2                !
 ! A7    A(2,3,4)              120.0044         estimate D2E/DX2                !
 ! A8    A(2,3,9)              120.0023         estimate D2E/DX2                !
 ! A9    A(4,3,9)              119.9933         estimate D2E/DX2                !
 ! A10   A(3,4,5)              119.9966         estimate D2E/DX2                !
 ! A11   A(3,4,10)             119.9993         estimate D2E/DX2                !
 ! A12   A(5,4,10)             120.0041         estimate D2E/DX2                !
 ! A13   A(4,5,6)              120.0001         estimate D2E/DX2                !
 ! A14   A(4,5,11)             119.9982         estimate D2E/DX2                !
 ! A15   A(6,5,11)             120.0017         estimate D2E/DX2                !
 ! A16   A(1,6,5)              120.0024         estimate D2E/DX2                !
 ! D1    D(6,1,2,3)             -0.009          estimate D2E/DX2                !
 ! D2    D(6,1,2,8)           -179.9792         estimate D2E/DX2                !
 ! D3    D(7,1,2,3)            179.9871         estimate D2E/DX2                !
 ! D4    D(7,1,2,8)              0.0169         estimate D2E/DX2                !
 ! D5    D(2,1,6,5)             -0.0128         estimate D2E/DX2                !
 ! D6    D(7,1,6,5)            179.991          estimate D2E/DX2                !
 ! D7    D(1,2,3,4)              0.0204         estimate D2E/DX2                !
 ! D8    D(1,2,3,9)            179.9895         estimate D2E/DX2                !
 ! D9    D(8,2,3,4)            179.9906         estimate D2E/DX2                !
 ! D10   D(8,2,3,9)             -0.0403         estimate D2E/DX2                !
 ! D11   D(2,3,4,5)             -0.01           estimate D2E/DX2                !
 ! D12   D(2,3,4,10)           179.9914         estimate D2E/DX2                !
 ! D13   D(9,3,4,5)           -179.9791         estimate D2E/DX2                !
 ! D14   D(9,3,4,10)             0.0223         estimate D2E/DX2                !
 ! D15   D(3,4,5,6)             -0.0119         estimate D2E/DX2                !
 ! D16   D(3,4,5,11)          -179.9789         estimate D2E/DX2                !
 ! D17   D(10,4,5,6)           179.9868         estimate D2E/DX2                !
 ! D18   D(10,4,5,11)            0.0197         estimate D2E/DX2                !
 ! D19   D(4,5,6,1)              0.0233         estimate D2E/DX2                !
 ! D20   D(11,5,6,1)           179.9903         estimate D2E/DX2                !
 --------------------------------------------------------------------------------
 Trust Radius=3.00D-01 FncErr=1.00D-07 GrdErr=1.00D-06 EigMax=2.50D+02 EigMin=1.00D-04
 Number of steps in this run=     57 maximum allowed number of steps=    100.
 GradGradGradGradGradGradGradGradGradGradGradGradGradGradGradGradGradGrad

 Leave Link  103 at Wed Jun 15 23:22:02 2022, MaxMem=  1342177280 cpu:               0.0 elap:               0.0
 (Enter /gpfs1/apps/software/Gaussian16/AVX/g16/l202.exe)
                          Input orientation:                          
 ---------------------------------------------------------------------
 Center     Atomic      Atomic             Coordinates (Angstroms)
 Number     Number       Type             X           Y           Z
 ---------------------------------------------------------------------
      1          6           0       -1.205910    0.696780    0.000010
      2          6           0       -1.206380   -0.695980    0.000110
      3          6           0       -0.000490   -1.392680   -0.000110
      4          6           0        1.205940   -0.696750    0.000000
      5          6           0        1.206380    0.695950    0.000120
      6          7           0        0.000460    1.392700   -0.000120
      7          1           0       -2.146420    1.240150   -0.000030
      8          1           0       -2.147260   -1.238720   -0.000130
      9          1           0       -0.000770   -2.478890    0.000140
     10          1           0        2.146400   -1.240210   -0.000030
     11          1           0        2.147240    1.238720   -0.000140
 ---------------------------------------------------------------------
                    Distance matrix (angstroms):
                    1          2          3          4          5
     1  C    0.000000
     2  C    1.392760   0.000000
     3  C    2.412236   1.392681   0.000000
     4  C    2.785489   2.412320   1.392764   0.000000
     5  C    2.412290   2.785477   2.412242   1.392700   0.000000
     6  N    1.392707   2.412270   2.785380   2.412257   1.392732
     7  H    1.086191   2.152272   3.396588   3.871679   3.396678
     8  H    2.152278   1.086196   2.152284   3.396716   3.871673
     9  H    3.396652   2.152269   1.086210   2.152248   3.396589
    10  H    3.871681   3.396663   2.152297   1.086192   2.152290
    11  H    3.396662   3.871670   3.396617   2.152229   1.086194
                    6          7          8          9         10
     6  N    0.000000
     7  H    2.152293   0.000000
     8  H    3.396627   2.478870   0.000000
     9  H    3.871590   4.293608   2.479000   0.000000
    10  H    3.396656   4.957871   4.293660   2.478844   0.000000
    11  H    2.152295   4.293660   4.957866   4.293550   2.478930
                   11
    11  H    0.000000
 Stoichiometry    C5H5N
 Framework group  C1[X(C5H5N)]
 Deg. of freedom    27
 Full point group                 C1      NOp   1
 Largest Abelian subgroup         C1      NOp   1
 Largest concise Abelian subgroup C1      NOp   1
                         Standard orientation:                         
 ---------------------------------------------------------------------
 Center     Atomic      Atomic             Coordinates (Angstroms)
 Number     Number       Type             X           Y           Z
 ---------------------------------------------------------------------
      1          6           0       -1.206155   -0.722218   -0.000016
      2          6           0       -1.206137    0.670543   -0.000116
      3          6           0       -0.000003    1.366820    0.000104
      4          6           0        1.206183    0.670467   -0.000006
      5          6           0        1.206135   -0.722233   -0.000126
      6          7           0       -0.000029   -1.418560    0.000114
      7          1           0       -2.146855   -1.265258    0.000024
      8          1           0       -2.146826    1.213612    0.000124
      9          1           0        0.000098    2.453030   -0.000146
     10          1           0        2.146834    1.213597    0.000024
     11          1           0        2.146805   -1.265333    0.000134
 ---------------------------------------------------------------------
 Rotational constants (GHZ):           5.8699104           5.7162865           2.8960400
 Leave Link  202 at Wed Jun 15 23:22:02 2022, MaxMem=  1342177280 cpu:               0.0 elap:               0.0
 (Enter /gpfs1/apps/software/Gaussian16/AVX/g16/l301.exe)
 Standard basis: 6-31G(d,p) (6D, 7F)
 Ernie: Thresh=  0.10000D-02 Tol=  0.10000D-05 Strict=F.
 There are   115 symmetry adapted cartesian basis functions of A   symmetry.
 There are   115 symmetry adapted basis functions of A   symmetry.
   115 basis functions,   203 primitive gaussians,   115 cartesian basis functions
    21 alpha electrons       21 beta electrons
       nuclear repulsion energy       203.6203455700 Hartrees.
 IExCor= 1009 DFT=T Ex+Corr=PBE1PBE ExCW=0 ScaHFX=  0.250000
 ScaDFX=  0.750000  0.750000  1.000000  1.000000 ScalE2=  1.000000  1.000000
 IRadAn=      5 IRanWt=     -1 IRanGd=            0 ICorTp=0 IEmpDi=141
 NAtoms=   11 NActive=   11 NUniq=   11 SFac= 1.00D+00 NAtFMM=   60 NAOKFM=F Big=F
 Integral buffers will be    131072 words long.
 Raffenetti 2 integral format.
 Two-electron integral symmetry is turned on.
 R6Disp:  Grimme-D3(BJ) Dispersion energy=       -0.0084204021 Hartrees.
 Nuclear repulsion after empirical dispersion term =      203.6119251680 Hartrees.
 ------------------------------------------------------------------------------
 Polarizable Continuum Model (PCM)
 =================================
 Model                : PCM.
 Atomic radii         : UFF (Universal Force Field).
 Polarization charges : Total charges.
 Charge compensation  : None.
 Solution method      : On-the-fly selection.
 Cavity type          : Scaled VdW (van der Waals Surface) (Alpha=1.100).
 Cavity algorithm     : GePol (No added spheres)
                        Default sphere list used, NSphG=   11.
                        Lebedev-Laikov grids with approx.  5.0 points / Ang**2.
                        Smoothing algorithm: York/Karplus (Gamma=1.0000).
                        Polarization charges: spherical gaussians, with
                                              point-specific exponents (IZeta= 3).
                        Self-potential: point-specific (ISelfS= 7).
                        Self-field    : sphere-specific E.n sum rule (ISelfD= 2).
 1st derivatives      : Analytical E(r).r(x)/FMM algorithm (CHGder, D1EAlg=3).
                        Cavity 1st derivative terms included.
 Solvent              : Toluene, Eps=   2.374100 Eps(inf)=   2.238315
 ------------------------------------------------------------------------------
 Spheres list:
 ISph  on   Nord     Re0    Alpha      Xe            Ye            Ze
    1   C      1    1.9255  1.100     -1.206155     -0.722218     -0.000016
    2   C      2    1.9255  1.100     -1.206137      0.670543     -0.000116
    3   C      3    1.9255  1.100     -0.000003      1.366820      0.000104
    4   C      4    1.9255  1.100      1.206183      0.670467     -0.000006
    5   C      5    1.9255  1.100      1.206135     -0.722233     -0.000126
    6   N      6    1.8300  1.100     -0.000029     -1.418560      0.000114
    7   H      7    1.4430  1.100     -2.146855     -1.265258      0.000024
    8   H      8    1.4430  1.100     -2.146826      1.213612      0.000124
    9   H      9    1.4430  1.100      0.000098      2.453030     -0.000146
   10   H     10    1.4430  1.100      2.146834      1.213597      0.000024
   11   H     11    1.4430  1.100      2.146805     -1.265333      0.000134
 ------------------------------------------------------------------------------
 GePol: Number of generator spheres                  =      11
 GePol: Total number of spheres                      =      11
 GePol: Number of exposed spheres                    =      11 (100.00%)
 GePol: Number of points                             =    1042
 GePol: Average weight of points                     =       0.13
 GePol: Minimum weight of points                     =   0.71D-07
 GePol: Maximum weight of points                     =    0.20577
 GePol: Number of points with low weight             =      56
 GePol: Fraction of low-weight points (<1% of avg)   =       5.37%
 GePol: Cavity surface area                          =    138.101 Ang**2
 GePol: Cavity volume                                =    129.077 Ang**3
 Leave Link  301 at Wed Jun 15 23:22:03 2022, MaxMem=  1342177280 cpu:               0.4 elap:               0.1
 (Enter /gpfs1/apps/software/Gaussian16/AVX/g16/l302.exe)
 NPDir=0 NMtPBC=     1 NCelOv=     1 NCel=       1 NClECP=     1 NCelD=      1
         NCelK=      1 NCelE2=     1 NClLst=     1 CellRange=     0.0.
 One-electron integrals computed using PRISM.
 One-electron integral symmetry used in STVInt
 NBasis=   115 RedAO= T EigKep=  8.78D-04  NBF=   115
 NBsUse=   115 1.00D-06 EigRej= -1.00D+00 NBFU=   115
 Precomputing XC quadrature grid using
 IXCGrd= 4 IRadAn=           5 IRanWt=          -1 IRanGd=           0 AccXCQ= 0.00D+00.
 Generated NRdTot=       0 NPtTot=           0 NUsed=           0 NTot=          32
 NSgBfM=   115   115   115   115   115 MxSgAt=    11 MxSgA2=    11.
 Leave Link  302 at Wed Jun 15 23:22:04 2022, MaxMem=  1342177280 cpu:               1.1 elap:               0.3
 (Enter /gpfs1/apps/software/Gaussian16/AVX/g16/l303.exe)
 DipDrv:  MaxL=1.
 Leave Link  303 at Wed Jun 15 23:22:05 2022, MaxMem=  1342177280 cpu:               0.2 elap:               0.1
 (Enter /gpfs1/apps/software/Gaussian16/AVX/g16/l401.exe)
 ExpMin= 1.61D-01 ExpMax= 4.17D+03 ExpMxC= 6.27D+02 IAcc=3 IRadAn=         5 AccDes= 0.00D+00
 Harris functional with IExCor= 1009 and IRadAn=       5 diagonalized for initial guess.
 HarFok:  IExCor= 1009 AccDes= 0.00D+00 IRadAn=         5 IDoV= 1 UseB2=F ITyADJ=14
 ICtDFT=  3500011 ScaDFX=  1.000000  1.000000  1.000000  1.000000
 FoFCou: FMM=F IPFlag=           0 FMFlag=      100000 FMFlg1=           0
         NFxFlg=           0 DoJE=T BraDBF=F KetDBF=T FulRan=T
         wScrn=  0.000000 ICntrl=       500 IOpCl=  0 I1Cent=   200000004 NGrid=           0
         NMat0=    1 NMatS0=      1 NMatT0=    0 NMatD0=    1 NMtDS0=    0 NMtDT0=    0
 Petite list used in FoFCou.
 Harris En= -248.055304762092    
 JPrj=0 DoOrth=F DoCkMO=F.
 Leave Link  401 at Wed Jun 15 23:22:06 2022, MaxMem=  1342177280 cpu:               3.8 elap:               1.0
 (Enter /gpfs1/apps/software/Gaussian16/AVX/g16/l502.exe)
 Keep R1 ints in memory in canonical form, NReq=26005709.
 FoFCou: FMM=F IPFlag=           0 FMFlag=           0 FMFlg1=           0
         NFxFlg=           0 DoJE=F BraDBF=F KetDBF=F FulRan=T
         wScrn=  0.000000 ICntrl=       600 IOpCl=  0 I1Cent=           0 NGrid=           0
         NMat0=    1 NMatS0=   6670 NMatT0=    0 NMatD0=    1 NMtDS0=    0 NMtDT0=    0
 Symmetry not used in FoFCou.
 Two-electron integral symmetry not used.
 Closed shell SCF:
 Using DIIS extrapolation, IDIIS=  1040.
 NGot=  1342177280 LenX=  1319900773 LenY=  1319887107
 Requested convergence on RMS density matrix=1.00D-08 within 128 cycles.
 Requested convergence on MAX density matrix=1.00D-06.
 Requested convergence on             energy=1.00D-06.
 No special actions if energy rises.

 Cycle   1  Pass 1  IDiag  1:
 Inv3:  Mode=1 IEnd=     3257292.
 Iteration    1 A*A^-1 deviation from unit magnitude is 3.55D-15 for   1041.
 Iteration    1 A*A^-1 deviation from orthogonality  is 1.58D-15 for    996    135.
 Iteration    1 A^-1*A deviation from unit magnitude is 3.55D-15 for   1041.
 Iteration    1 A^-1*A deviation from orthogonality  is 1.96D-15 for    953    126.
 E= -247.899834919103    
 DIIS: error= 3.89D-02 at cycle   1 NSaved=   1.
 NSaved= 1 IEnMin= 1 EnMin= -247.899834919103     IErMin= 1 ErrMin= 3.89D-02
 ErrMax= 3.89D-02  0.00D+00 EMaxC= 1.00D-01 BMatC= 9.36D-02 BMatP= 9.36D-02
 IDIUse=3 WtCom= 6.11D-01 WtEn= 3.89D-01
 Coeff-Com:  0.100D+01
 Coeff-En:   0.100D+01
 Coeff:      0.100D+01
 Gap=     0.259 Goal=   None    Shift=    0.000
 GapD=    0.259 DampG=1.000 DampE=0.500 DampFc=0.5000 IDamp=-1.
 Damping current iteration by 5.00D-01
 RMSDP=5.39D-03 MaxDP=8.59D-02              OVMax= 1.51D-01

 Cycle   2  Pass 1  IDiag  1:
 E= -247.947879748679     Delta-E=       -0.048044829577 Rises=F Damp=T
 DIIS: error= 9.26D-03 at cycle   2 NSaved=   2.
 NSaved= 2 IEnMin= 2 EnMin= -247.947879748679     IErMin= 2 ErrMin= 9.26D-03
 ErrMax= 9.26D-03  0.00D+00 EMaxC= 1.00D-01 BMatC= 8.13D-03 BMatP= 9.36D-02
 IDIUse=3 WtCom= 9.07D-01 WtEn= 9.26D-02
 Coeff-Com: -0.689D-01 0.107D+01
 Coeff-En:   0.000D+00 0.100D+01
 Coeff:     -0.625D-01 0.106D+01
 Gap=     0.252 Goal=   None    Shift=    0.000
 RMSDP=1.54D-03 MaxDP=2.09D-02 DE=-4.80D-02 OVMax= 1.13D-01

 Cycle   3  Pass 1  IDiag  1:
 E= -247.992091117221     Delta-E=       -0.044211368542 Rises=F Damp=F
 DIIS: error= 9.65D-03 at cycle   3 NSaved=   3.
 NSaved= 3 IEnMin= 3 EnMin= -247.992091117221     IErMin= 2 ErrMin= 9.26D-03
 ErrMax= 9.65D-03  0.00D+00 EMaxC= 1.00D-01 BMatC= 4.75D-03 BMatP= 8.13D-03
 IDIUse=3 WtCom= 9.03D-01 WtEn= 9.65D-02
 Coeff-Com: -0.939D-01 0.484D+00 0.610D+00
 Coeff-En:   0.000D+00 0.000D+00 0.100D+01
 Coeff:     -0.848D-01 0.437D+00 0.648D+00
 Gap=     0.245 Goal=   None    Shift=    0.000
 RMSDP=9.66D-04 MaxDP=1.98D-02 DE=-4.42D-02 OVMax= 4.82D-02

 Cycle   4  Pass 1  IDiag  1:
 E= -247.995130210729     Delta-E=       -0.003039093507 Rises=F Damp=F
 DIIS: error= 6.21D-03 at cycle   4 NSaved=   4.
 NSaved= 4 IEnMin= 4 EnMin= -247.995130210729     IErMin= 4 ErrMin= 6.21D-03
 ErrMax= 6.21D-03  0.00D+00 EMaxC= 1.00D-01 BMatC= 2.03D-03 BMatP= 4.75D-03
 IDIUse=3 WtCom= 9.38D-01 WtEn= 6.21D-02
 Coeff-Com: -0.395D-01 0.129D+00 0.414D+00 0.497D+00
 Coeff-En:   0.000D+00 0.000D+00 0.321D+00 0.679D+00
 Coeff:     -0.370D-01 0.121D+00 0.408D+00 0.508D+00
 Gap=     0.235 Goal=   None    Shift=    0.000
 RMSDP=4.33D-04 MaxDP=1.18D-02 DE=-3.04D-03 OVMax= 2.35D-02

 Cycle   5  Pass 1  IDiag  1:
 E= -247.997228256283     Delta-E=       -0.002098045554 Rises=F Damp=F
 DIIS: error= 1.09D-03 at cycle   5 NSaved=   5.
 NSaved= 5 IEnMin= 5 EnMin= -247.997228256283     IErMin= 5 ErrMin= 1.09D-03
 ErrMax= 1.09D-03  0.00D+00 EMaxC= 1.00D-01 BMatC= 7.54D-05 BMatP= 2.03D-03
 IDIUse=3 WtCom= 9.89D-01 WtEn= 1.09D-02
 Coeff-Com: -0.131D-01 0.340D-01 0.171D+00 0.262D+00 0.546D+00
 Coeff-En:   0.000D+00 0.000D+00 0.000D+00 0.000D+00 0.100D+01
 Coeff:     -0.129D-01 0.336D-01 0.169D+00 0.259D+00 0.551D+00
 Gap=     0.236 Goal=   None    Shift=    0.000
 RMSDP=7.19D-05 MaxDP=2.38D-03 DE=-2.10D-03 OVMax= 3.52D-03

 Cycle   6  Pass 1  IDiag  1:
 E= -247.997286770068     Delta-E=       -0.000058513785 Rises=F Damp=F
 DIIS: error= 2.92D-04 at cycle   6 NSaved=   6.
 NSaved= 6 IEnMin= 6 EnMin= -247.997286770068     IErMin= 6 ErrMin= 2.92D-04
 ErrMax= 2.92D-04  0.00D+00 EMaxC= 1.00D-01 BMatC= 7.67D-06 BMatP= 7.54D-05
 IDIUse=3 WtCom= 9.97D-01 WtEn= 2.92D-03
 Coeff-Com: -0.384D-02 0.734D-02 0.562D-01 0.986D-01 0.305D+00 0.536D+00
 Coeff-En:   0.000D+00 0.000D+00 0.000D+00 0.000D+00 0.286D-01 0.971D+00
 Coeff:     -0.383D-02 0.732D-02 0.561D-01 0.983D-01 0.304D+00 0.538D+00
 Gap=     0.236 Goal=   None    Shift=    0.000
 RMSDP=1.88D-05 MaxDP=4.97D-04 DE=-5.85D-05 OVMax= 8.85D-04

 Cycle   7  Pass 1  IDiag  1:
 E= -247.997293562790     Delta-E=       -0.000006792722 Rises=F Damp=F
 DIIS: error= 2.51D-05 at cycle   7 NSaved=   7.
 NSaved= 7 IEnMin= 7 EnMin= -247.997293562790     IErMin= 7 ErrMin= 2.51D-05
 ErrMax= 2.51D-05  0.00D+00 EMaxC= 1.00D-01 BMatC= 4.26D-08 BMatP= 7.67D-06
 IDIUse=1 WtCom= 1.00D+00 WtEn= 0.00D+00
 Coeff-Com: -0.570D-03 0.884D-03 0.905D-02 0.160D-01 0.543D-01 0.130D+00
 Coeff-Com:  0.791D+00
 Coeff:     -0.570D-03 0.884D-03 0.905D-02 0.160D-01 0.543D-01 0.130D+00
 Coeff:      0.791D+00
 Gap=     0.236 Goal=   None    Shift=    0.000
 RMSDP=2.50D-06 MaxDP=7.68D-05 DE=-6.79D-06 OVMax= 1.23D-04

 Cycle   8  Pass 1  IDiag  1:
 E= -247.997293587387     Delta-E=       -0.000000024598 Rises=F Damp=F
 DIIS: error= 1.59D-05 at cycle   8 NSaved=   8.
 NSaved= 8 IEnMin= 8 EnMin= -247.997293587387     IErMin= 8 ErrMin= 1.59D-05
 ErrMax= 1.59D-05  0.00D+00 EMaxC= 1.00D-01 BMatC= 2.08D-08 BMatP= 4.26D-08
 IDIUse=1 WtCom= 1.00D+00 WtEn= 0.00D+00
 Coeff-Com:  0.140D-03-0.397D-03-0.155D-02-0.263D-02-0.568D-02 0.127D-01
 Coeff-Com:  0.458D+00 0.540D+00
 Coeff:      0.140D-03-0.397D-03-0.155D-02-0.263D-02-0.568D-02 0.127D-01
 Coeff:      0.458D+00 0.540D+00
 Gap=     0.236 Goal=   None    Shift=    0.000
 RMSDP=9.99D-07 MaxDP=3.23D-05 DE=-2.46D-08 OVMax= 4.81D-05

 Cycle   9  Pass 1  IDiag  1:
 E= -247.997293606750     Delta-E=       -0.000000019363 Rises=F Damp=F
 DIIS: error= 7.16D-07 at cycle   9 NSaved=   9.
 NSaved= 9 IEnMin= 9 EnMin= -247.997293606750     IErMin= 9 ErrMin= 7.16D-07
 ErrMax= 7.16D-07  0.00D+00 EMaxC= 1.00D-01 BMatC= 5.96D-11 BMatP= 2.08D-08
 IDIUse=1 WtCom= 1.00D+00 WtEn= 0.00D+00
 Coeff-Com:  0.237D-04-0.448D-04-0.321D-03-0.545D-03-0.215D-02-0.144D-02
 Coeff-Com:  0.951D-02 0.111D-01 0.984D+00
 Coeff:      0.237D-04-0.448D-04-0.321D-03-0.545D-03-0.215D-02-0.144D-02
 Coeff:      0.951D-02 0.111D-01 0.984D+00
 Gap=     0.236 Goal=   None    Shift=    0.000
 RMSDP=8.93D-08 MaxDP=1.60D-06 DE=-1.94D-08 OVMax= 4.20D-06

 Cycle  10  Pass 1  IDiag  1:
 E= -247.997293606818     Delta-E=       -0.000000000067 Rises=F Damp=F
 DIIS: error= 2.33D-07 at cycle  10 NSaved=  10.
 NSaved=10 IEnMin=10 EnMin= -247.997293606818     IErMin=10 ErrMin= 2.33D-07
 ErrMax= 2.33D-07  0.00D+00 EMaxC= 1.00D-01 BMatC= 5.38D-12 BMatP= 5.96D-11
 IDIUse=1 WtCom= 1.00D+00 WtEn= 0.00D+00
 Coeff-Com: -0.511D-06 0.352D-05 0.170D-04 0.260D-04-0.114D-03-0.765D-05
 Coeff-Com: -0.838D-02-0.162D-01 0.423D-01 0.982D+00
 Coeff:     -0.511D-06 0.352D-05 0.170D-04 0.260D-04-0.114D-03-0.765D-05
 Coeff:     -0.838D-02-0.162D-01 0.423D-01 0.982D+00
 Gap=     0.236 Goal=   None    Shift=    0.000
 RMSDP=2.05D-08 MaxDP=3.65D-07 DE=-6.73D-11 OVMax= 5.60D-07

 Cycle  11  Pass 1  IDiag  1:
 E= -247.997293606822     Delta-E=       -0.000000000004 Rises=F Damp=F
 DIIS: error= 3.51D-08 at cycle  11 NSaved=  11.
 NSaved=11 IEnMin=11 EnMin= -247.997293606822     IErMin=11 ErrMin= 3.51D-08
 ErrMax= 3.51D-08  0.00D+00 EMaxC= 1.00D-01 BMatC= 2.31D-13 BMatP= 5.38D-12
 IDIUse=1 WtCom= 1.00D+00 WtEn= 0.00D+00
 Coeff-Com: -0.102D-05 0.252D-05 0.176D-04 0.305D-04 0.443D-04 0.112D-03
 Coeff-Com: -0.217D-02-0.501D-02-0.286D-01 0.240D+00 0.795D+00
 Coeff:     -0.102D-05 0.252D-05 0.176D-04 0.305D-04 0.443D-04 0.112D-03
 Coeff:     -0.217D-02-0.501D-02-0.286D-01 0.240D+00 0.795D+00
 Gap=     0.236 Goal=   None    Shift=    0.000
 RMSDP=5.62D-09 MaxDP=9.32D-08 DE=-4.32D-12 OVMax= 2.79D-07

 Error on total polarization charges =  0.00419
 SCF Done:  E(RPBE1PBE) =  -247.997293607     A.U. after   11 cycles
            NFock= 11  Conv=0.56D-08     -V/T= 2.0101
 KE= 2.455065007608D+02 PE=-9.825000004942D+02 EE= 2.853842809587D+02
 Leave Link  502 at Wed Jun 15 23:22:21 2022, MaxMem=  1342177280 cpu:              52.2 elap:              13.4
 (Enter /gpfs1/apps/software/Gaussian16/AVX/g16/l601.exe)
 Copying SCF densities to generalized density rwf, IOpCl= 0 IROHF=0.

 **********************************************************************

            Population analysis using the SCF Density.

 **********************************************************************

 Orbital symmetries:
       Occupied  (A) (A) (A) (A) (A) (A) (A) (A) (A) (A) (A) (A)
                 (A) (A) (A) (A) (A) (A) (A) (A) (A)
       Virtual   (A) (A) (A) (A) (A) (A) (A) (A) (A) (A) (A) (A)
                 (A) (A) (A) (A) (A) (A) (A) (A) (A) (A) (A) (A)
                 (A) (A) (A) (A) (A) (A) (A) (A) (A) (A) (A) (A)
                 (A) (A) (A) (A) (A) (A) (A) (A) (A) (A) (A) (A)
                 (A) (A) (A) (A) (A) (A) (A) (A) (A) (A) (A) (A)
                 (A) (A) (A) (A) (A) (A) (A) (A) (A) (A) (A) (A)
                 (A) (A) (A) (A) (A) (A) (A) (A) (A) (A) (A) (A)
                 (A) (A) (A) (A) (A) (A) (A) (A) (A) (A)
 The electronic state is 1-A.
 Alpha  occ. eigenvalues --  -14.40512 -10.27886 -10.27885 -10.25780 -10.24925
 Alpha  occ. eigenvalues --  -10.24923  -0.94352  -0.81974  -0.78485  -0.64813
 Alpha  occ. eigenvalues --   -0.63946  -0.53950  -0.48716  -0.48504  -0.44577
 Alpha  occ. eigenvalues --   -0.40901  -0.40148  -0.37619  -0.29103  -0.27594
 Alpha  occ. eigenvalues --   -0.26200
 Alpha virt. eigenvalues --   -0.02600  -0.00715   0.10768   0.14689   0.15184
 Alpha virt. eigenvalues --    0.15779   0.19083   0.19584   0.23495   0.29590
 Alpha virt. eigenvalues --    0.32262   0.32392   0.45901   0.46967   0.53447
 Alpha virt. eigenvalues --    0.53763   0.56655   0.59578   0.60559   0.61259
 Alpha virt. eigenvalues --    0.61766   0.61928   0.63884   0.67591   0.68184
 Alpha virt. eigenvalues --    0.71071   0.83187   0.83568   0.85147   0.85480
 Alpha virt. eigenvalues --    0.86791   0.89339   0.92924   0.94350   0.97919
 Alpha virt. eigenvalues --    1.03289   1.08001   1.11335   1.17798   1.20868
 Alpha virt. eigenvalues --    1.25239   1.30179   1.37754   1.39556   1.40790
 Alpha virt. eigenvalues --    1.42346   1.45315   1.50260   1.72493   1.73882
 Alpha virt. eigenvalues --    1.77716   1.80281   1.89219   1.91000   1.95586
 Alpha virt. eigenvalues --    1.97622   1.99509   1.99916   2.05574   2.10503
 Alpha virt. eigenvalues --    2.10833   2.30065   2.30268   2.32156   2.37353
 Alpha virt. eigenvalues --    2.38231   2.41294   2.44061   2.44904   2.49287
 Alpha virt. eigenvalues --    2.49311   2.50015   2.52952   2.59858   2.60207
 Alpha virt. eigenvalues --    2.66156   2.73834   2.73904   2.84602   2.97248
 Alpha virt. eigenvalues --    3.04028   3.13372   3.25197   3.26002   3.32794
 Alpha virt. eigenvalues --    3.41411   3.51518   3.85832   4.09067   4.18335
 Alpha virt. eigenvalues --    4.19496   4.33516   4.45524   4.74890
     Molecular Orbital Coefficients:
                          17        18        19        20        21
                           O         O         O         O         O
     Eigenvalues --    -0.40148  -0.37619  -0.29103  -0.27594  -0.26200
   1 1   C  1S         -0.00005   0.00573   0.00002  -0.00000  -0.02132
   2        2S          0.00011  -0.00531  -0.00004   0.00001   0.05211
   3        2PX         0.00022   0.19460  -0.00006  -0.00001   0.08107
   4        2PY         0.00034   0.00538   0.00008   0.00005  -0.16972
   5        2PZ         0.22934  -0.00008   0.12690   0.29945   0.00008
   6        3S          0.00013  -0.03984   0.00000  -0.00005   0.06445
   7        3PX         0.00005   0.06603   0.00002  -0.00003  -0.00332
   8        3PY         0.00018  -0.00056   0.00003  -0.00000   0.00309
   9        3PZ         0.13458  -0.00005   0.09833   0.20635   0.00005
  10        4XX        -0.00000  -0.00409  -0.00001  -0.00000   0.02225
  11        4YY        -0.00001   0.00188   0.00001   0.00000  -0.02096
  12        4ZZ        -0.00000  -0.00059   0.00000  -0.00000  -0.00161
  13        4XY        -0.00001  -0.02087  -0.00000   0.00000   0.01277
  14        4XZ         0.01235  -0.00000   0.01348  -0.00034   0.00000
  15        4YZ         0.00345  -0.00000  -0.01510   0.01210  -0.00000
  16 2   C  1S          0.00006   0.00205  -0.00002   0.00001   0.02156
  17        2S         -0.00012  -0.00992   0.00006  -0.00004  -0.05032
  18        2PX        -0.00025  -0.26535   0.00001   0.00000  -0.00913
  19        2PY        -0.00035  -0.02731  -0.00005  -0.00003   0.17125
  20        2PZ         0.20060  -0.00008  -0.19198   0.28950  -0.00008
  21        3S         -0.00021   0.01463  -0.00001   0.00002  -0.10242
  22        3PX        -0.00009  -0.09978  -0.00009   0.00006   0.05660
  23        3PY        -0.00007  -0.02002  -0.00001  -0.00005   0.11480
  24        3PZ         0.11492  -0.00005  -0.13775   0.21207  -0.00007
  25        4XX        -0.00003   0.00651   0.00000  -0.00000   0.00597
  26        4YY         0.00002  -0.00184   0.00000  -0.00000  -0.00273
  27        4ZZ         0.00001  -0.00048  -0.00000   0.00000  -0.00064
  28        4XY        -0.00001  -0.01787   0.00000   0.00000  -0.00573
  29        4XZ         0.00854  -0.00001  -0.01180   0.00028  -0.00001
  30        4YZ        -0.00590   0.00000  -0.01064  -0.01168  -0.00000
  31 3   C  1S         -0.00000  -0.00001   0.00002  -0.00000   0.00202
  32        2S         -0.00002   0.00001  -0.00006   0.00001   0.00020
  33        2PX         0.00010   0.29423   0.00003   0.00000  -0.00000
  34        2PY         0.00067  -0.00013  -0.00000  -0.00001  -0.04128
  35        2PZ         0.19524  -0.00005  -0.34196  -0.00002  -0.00018
  36        3S          0.00000   0.00003   0.00006  -0.00007  -0.09540
  37        3PX         0.00003   0.10803   0.00001   0.00002   0.00000
  38        3PY         0.00021  -0.00005  -0.00010   0.00005  -0.00281
  39        3PZ         0.11333  -0.00003  -0.23567  -0.00002  -0.00012
  40        4XX        -0.00003   0.00000  -0.00000   0.00000   0.00631
  41        4YY         0.00004  -0.00001   0.00000  -0.00000  -0.01018
  42        4ZZ        -0.00001   0.00000   0.00000  -0.00000   0.00013
  43        4XY        -0.00000  -0.01265  -0.00000   0.00000  -0.00000
  44        4XZ        -0.00000  -0.00000   0.00000  -0.01954   0.00000
  45        4YZ        -0.01012   0.00000   0.00799   0.00000   0.00000
  46 4   C  1S          0.00004  -0.00206  -0.00001   0.00000   0.02156
  47        2S         -0.00008   0.00994   0.00004  -0.00001  -0.05032
  48        2PX         0.00006  -0.26542  -0.00003  -0.00001   0.00911
  49        2PY        -0.00034   0.02741  -0.00004   0.00006   0.17124
  50        2PZ         0.20059  -0.00006  -0.19188  -0.28957  -0.00007
  51        3S         -0.00017  -0.01458  -0.00003   0.00005  -0.10242
  52        3PX        -0.00001  -0.09980   0.00006  -0.00005  -0.05660
  53        3PY        -0.00008   0.02005   0.00000   0.00000   0.11478
  54        3PZ         0.11491  -0.00004  -0.13768  -0.21212  -0.00005
  55        4XX        -0.00003  -0.00650  -0.00000   0.00000   0.00597
  56        4YY         0.00003   0.00183   0.00000  -0.00000  -0.00273
  57        4ZZ         0.00000   0.00048  -0.00000   0.00000  -0.00064
  58        4XY        -0.00000  -0.01787  -0.00000  -0.00000   0.00573
  59        4XZ        -0.00854   0.00000   0.01180   0.00029   0.00001
  60        4YZ        -0.00590   0.00000  -0.01064   0.01168  -0.00001
  61 5   C  1S         -0.00004  -0.00571   0.00002  -0.00002  -0.02132
  62        2S          0.00009   0.00527  -0.00005   0.00004   0.05212
  63        2PX        -0.00010   0.19466   0.00005  -0.00000  -0.08108
  64        2PY         0.00033  -0.00550   0.00008  -0.00004  -0.16971
  65        2PZ         0.22934  -0.00009   0.12695  -0.29944   0.00008
  66        3S          0.00011   0.03980  -0.00001   0.00002   0.06447
  67        3PX         0.00001   0.06605  -0.00002   0.00005   0.00331
  68        3PY         0.00017   0.00050   0.00002  -0.00005   0.00309
  69        3PZ         0.13457  -0.00005   0.09836  -0.20634   0.00006
  70        4XX        -0.00000   0.00409  -0.00001  -0.00000   0.02224
  71        4YY        -0.00001  -0.00188   0.00001   0.00000  -0.02096
  72        4ZZ         0.00000   0.00059   0.00000  -0.00000  -0.00161
  73        4XY        -0.00000  -0.02087   0.00000  -0.00000  -0.01277
  74        4XZ        -0.01235   0.00001  -0.01348  -0.00034  -0.00001
  75        4YZ         0.00345  -0.00000  -0.01509  -0.01211  -0.00001
  76 6   N  1S          0.00005  -0.00001  -0.00004   0.00000   0.07075
  77        2S         -0.00011   0.00002   0.00010  -0.00001  -0.14739
  78        2PX        -0.00005  -0.22050   0.00002   0.00000  -0.00000
  79        2PY         0.00038  -0.00007  -0.00018  -0.00000   0.51035
  80        2PZ         0.27839  -0.00010   0.35876   0.00006   0.00009
  81        3S         -0.00011   0.00001   0.00013   0.00005  -0.28035
  82        3PX        -0.00003  -0.11379   0.00001   0.00001   0.00000
  83        3PY         0.00025  -0.00004  -0.00015   0.00002   0.38184
  84        3PZ         0.17208  -0.00006   0.25777   0.00004   0.00006
  85        4XX        -0.00001   0.00000   0.00000  -0.00000   0.00336
  86        4YY         0.00004  -0.00001  -0.00001  -0.00000   0.02649
  87        4ZZ        -0.00002   0.00000  -0.00000  -0.00000  -0.00840
  88        4XY        -0.00000  -0.01318   0.00000  -0.00000   0.00000
  89        4XZ        -0.00000   0.00000   0.00000  -0.01787  -0.00000
  90        4YZ         0.02024  -0.00001   0.01797   0.00000  -0.00000
  91 7   H  1S         -0.00018  -0.13479  -0.00003  -0.00000   0.07630
  92        2S         -0.00017  -0.12591  -0.00001  -0.00001   0.09171
  93        3PX        -0.00001  -0.00247  -0.00000  -0.00000   0.00190
  94        3PY         0.00000  -0.00245   0.00000   0.00000  -0.00287
  95        3PZ         0.00467  -0.00000   0.00295   0.00773   0.00000
  96 8   H  1S         -0.00001   0.15923  -0.00003   0.00001   0.06066
  97        2S         -0.00001   0.15459  -0.00006   0.00003   0.10288
  98        3PX        -0.00000   0.00201  -0.00000   0.00000   0.00188
  99        3PY        -0.00001  -0.00421  -0.00000  -0.00000   0.00154
 100        3PZ         0.00421  -0.00000  -0.00476   0.00740  -0.00000
 101 9   H  1S          0.00044  -0.00007   0.00002  -0.00000  -0.04899
 102        2S          0.00043  -0.00007   0.00006  -0.00002  -0.05865
 103        3PX         0.00000   0.00486   0.00000   0.00000   0.00000
 104        3PY        -0.00001   0.00000  -0.00000  -0.00000   0.00006
 105        3PZ         0.00408  -0.00000  -0.00867  -0.00000  -0.00001
 106 10  H  1S         -0.00014  -0.15921  -0.00003   0.00000   0.06065
 107        2S         -0.00011  -0.15459  -0.00006   0.00003   0.10286
 108        3PX         0.00001   0.00201   0.00000  -0.00000  -0.00188
 109        3PY        -0.00000   0.00421   0.00000   0.00000   0.00154
 110        3PZ         0.00421  -0.00000  -0.00476  -0.00740  -0.00000
 111 11  H  1S         -0.00009   0.13485  -0.00002  -0.00001   0.07630
 112        2S         -0.00011   0.12596  -0.00001  -0.00002   0.09171
 113        3PX         0.00000  -0.00247   0.00000   0.00000  -0.00190
 114        3PY         0.00000   0.00245   0.00000  -0.00000  -0.00287
 115        3PZ         0.00467  -0.00000   0.00295  -0.00772   0.00000
                          22        23        24        25        26
                           V         V         V         V         V
     Eigenvalues --    -0.02600  -0.00715   0.10768   0.14689   0.15184
   1 1   C  1S          0.00000  -0.00001   0.03989   0.00007  -0.02804
   2        2S         -0.00002   0.00003  -0.08439  -0.00016   0.03202
   3        2PX        -0.00000   0.00001   0.07361  -0.00032  -0.19252
   4        2PY        -0.00003  -0.00001   0.04265   0.00004  -0.09224
   5        2PZ        -0.22134  -0.31948  -0.00008   0.27754  -0.00057
   6        3S         -0.00003  -0.00008  -0.42239  -0.00012   0.70026
   7        3PX        -0.00000  -0.00003   0.22034  -0.00028  -0.41242
   8        3PY        -0.00004  -0.00008   0.13943   0.00013  -0.27451
   9        3PZ        -0.23900  -0.40935  -0.00008   0.46753  -0.00102
  10        4XX         0.00000   0.00000   0.00780   0.00004  -0.00174
  11        4YY        -0.00001   0.00000   0.00330  -0.00000   0.00116
  12        4ZZ         0.00001  -0.00000  -0.00231  -0.00001  -0.00107
  13        4XY         0.00000   0.00000   0.01531  -0.00005  -0.01692
  14        4XZ         0.01995  -0.00005   0.00000  -0.01419   0.00003
  15        4YZ        -0.02024   0.01715  -0.00000  -0.00964   0.00002
  16 2   C  1S         -0.00000   0.00002   0.03877  -0.00007  -0.03448
  17        2S         -0.00001  -0.00005  -0.06171   0.00009   0.03669
  18        2PX        -0.00003   0.00000   0.12502  -0.00047  -0.19544
  19        2PY         0.00002  -0.00003  -0.10643   0.00013   0.09053
  20        2PZ        -0.15012   0.31354   0.00003  -0.30311   0.00067
  21        3S          0.00011  -0.00012  -0.62353   0.00129   0.81919
  22        3PX         0.00003   0.00008   0.27736  -0.00149  -0.41716
  23        3PY        -0.00002  -0.00012  -0.18733   0.00053   0.36830
  24        3PZ        -0.20785   0.42002  -0.00007  -0.54850   0.00132
  25        4XX        -0.00000   0.00000   0.01798  -0.00001  -0.00187
  26        4YY         0.00000   0.00000  -0.00964  -0.00001  -0.00089
  27        4ZZ         0.00000  -0.00000  -0.00097   0.00001  -0.00130
  28        4XY        -0.00000  -0.00000  -0.01889   0.00004   0.01607
  29        4XZ         0.01655   0.00074  -0.00000   0.01538  -0.00003
  30        4YZ         0.02277   0.01792   0.00000  -0.00665   0.00002
  31 3   C  1S         -0.00002  -0.00001   0.04645  -0.00008   0.00005
  32        2S          0.00005   0.00002  -0.08074   0.00005  -0.00007
  33        2PX        -0.00001  -0.00003  -0.00000  -0.00006  -0.03268
  34        2PY         0.00003  -0.00002  -0.18657   0.00016  -0.00007
  35        2PZ         0.35640  -0.00009  -0.00002   0.30586  -0.00063
  36        3S          0.00004  -0.00004  -0.64414   0.00203  -0.00115
  37        3PX        -0.00007  -0.00006  -0.00003   0.00041   0.20931
  38        3PY         0.00015   0.00004  -0.46869   0.00010  -0.00016
  39        3PZ         0.46496  -0.00013   0.00007   0.56226  -0.00123
  40        4XX        -0.00000   0.00000  -0.01916  -0.00001   0.00000
  41        4YY        -0.00001   0.00000   0.03088  -0.00000  -0.00000
  42        4ZZ         0.00000  -0.00000  -0.00189   0.00000   0.00000
  43        4XY         0.00000   0.00000   0.00001  -0.00003  -0.01334
  44        4XZ        -0.00001  -0.03184   0.00000   0.00000  -0.00000
  45        4YZ         0.00845  -0.00000  -0.00000   0.01654  -0.00004
  46 4   C  1S          0.00001  -0.00001   0.03878   0.00008   0.03446
  47        2S         -0.00005   0.00002  -0.06174  -0.00005  -0.03668
  48        2PX         0.00002  -0.00002  -0.12500  -0.00035  -0.19554
  49        2PY         0.00005   0.00001  -0.10643  -0.00026  -0.09049
  50        2PZ        -0.15023  -0.31348   0.00009  -0.30311   0.00062
  51        3S          0.00009   0.00003  -0.62364  -0.00220  -0.81868
  52        3PX        -0.00015  -0.00002  -0.27738  -0.00022  -0.41773
  53        3PY         0.00003   0.00006  -0.18733  -0.00098  -0.36797
  54        3PZ        -0.20798  -0.41994   0.00011  -0.54850   0.00118
  55        4XX        -0.00000   0.00000   0.01798   0.00001   0.00187
  56        4YY        -0.00000   0.00000  -0.00964  -0.00000   0.00090
  57        4ZZ         0.00000  -0.00000  -0.00097   0.00001   0.00130
  58        4XY        -0.00000   0.00000   0.01889   0.00003   0.01608
  59        4XZ        -0.01655   0.00075   0.00000  -0.01538   0.00003
  60        4YZ         0.02277  -0.01793   0.00000  -0.00665   0.00002
  61 5   C  1S         -0.00002   0.00003   0.03988   0.00020   0.02793
  62        2S          0.00002  -0.00006  -0.08436  -0.00029  -0.03183
  63        2PX         0.00002   0.00001  -0.07361  -0.00049  -0.19251
  64        2PY        -0.00001   0.00004   0.04268   0.00045   0.09203
  65        2PZ        -0.22118   0.31958  -0.00014   0.27755  -0.00062
  66        3S          0.00006  -0.00020  -0.42227  -0.00322  -0.69872
  67        3PX         0.00014  -0.00003  -0.22028  -0.00146  -0.41216
  68        3PY        -0.00001   0.00008   0.13948   0.00130   0.27389
  69        3PZ        -0.23879   0.40948  -0.00024   0.46755  -0.00114
  70        4XX        -0.00000   0.00000   0.00779   0.00005   0.00170
  71        4YY        -0.00001   0.00000   0.00330   0.00000  -0.00114
  72        4ZZ         0.00001  -0.00000  -0.00231  -0.00002   0.00108
  73        4XY        -0.00000  -0.00000  -0.01531  -0.00002  -0.01694
  74        4XZ        -0.01995  -0.00004  -0.00000   0.01419  -0.00003
  75        4YZ        -0.02024  -0.01714   0.00000  -0.00964   0.00002
  76 6   N  1S         -0.00001  -0.00001   0.00053  -0.00009   0.00005
  77        2S         -0.00000   0.00002  -0.01289   0.00022  -0.00011
  78        2PX         0.00001   0.00004  -0.00001  -0.00006  -0.03909
  79        2PY         0.00008   0.00001  -0.06156   0.00013  -0.00010
  80        2PZ         0.38044  -0.00007   0.00010  -0.28298   0.00060
  81        3S          0.00013   0.00007  -0.00749   0.00072  -0.00059
  82        3PX         0.00005   0.00003  -0.00001   0.00014   0.05876
  83        3PY         0.00012   0.00002  -0.13986  -0.00000  -0.00012
  84        3PZ         0.42194  -0.00008   0.00014  -0.39017   0.00086
  85        4XX        -0.00000   0.00000  -0.01255  -0.00003   0.00002
  86        4YY         0.00000   0.00000   0.00493   0.00002  -0.00000
  87        4ZZ        -0.00000  -0.00000  -0.00208  -0.00000   0.00000
  88        4XY         0.00000   0.00000   0.00000   0.00003   0.01225
  89        4XZ         0.00001   0.02820  -0.00000   0.00000  -0.00000
  90        4YZ         0.00661  -0.00000  -0.00000  -0.00047   0.00000
  91 7   H  1S          0.00001  -0.00000   0.04660  -0.00000  -0.04806
  92        2S          0.00001  -0.00002   0.61477  -0.00030  -1.00717
  93        3PX         0.00000  -0.00000  -0.00407  -0.00001   0.00358
  94        3PY        -0.00000  -0.00000  -0.00240   0.00001   0.00259
  95        3PZ        -0.00862  -0.01200  -0.00000   0.01477  -0.00003
  96 8   H  1S         -0.00002   0.00005   0.06469  -0.00019  -0.04693
  97        2S         -0.00001   0.00015   0.85773  -0.00247  -1.09026
  98        3PX         0.00000   0.00000  -0.00580   0.00000   0.00291
  99        3PY         0.00000  -0.00000   0.00177  -0.00001  -0.00380
 100        3PZ        -0.00522   0.01193   0.00000  -0.01587   0.00003
 101 9   H  1S         -0.00006   0.00000   0.08484  -0.00007   0.00001
 102        2S         -0.00016  -0.00001   1.05107  -0.00091   0.00067
 103        3PX         0.00000   0.00000   0.00000  -0.00001  -0.00265
 104        3PY         0.00000   0.00000   0.00720   0.00000   0.00000
 105        3PZ         0.01300  -0.00000  -0.00000   0.01585  -0.00003
 106 10  H  1S          0.00000  -0.00000   0.06468   0.00006   0.04697
 107        2S          0.00007  -0.00001   0.85778   0.00201   1.09050
 108        3PX        -0.00000   0.00000   0.00580   0.00001   0.00291
 109        3PY        -0.00000   0.00000   0.00177   0.00000   0.00381
 110        3PZ        -0.00522  -0.01193   0.00000  -0.01587   0.00003
 111 11  H  1S         -0.00002   0.00005   0.04660   0.00026   0.04799
 112        2S         -0.00010   0.00014   0.61468   0.00396   1.00578
 113        3PX         0.00000  -0.00000   0.00407   0.00002   0.00357
 114        3PY        -0.00000   0.00000  -0.00240   0.00000  -0.00261
 115        3PZ        -0.00861   0.01201  -0.00001   0.01477  -0.00003
     Density Matrix:
                           1         2         3         4         5
   1 1   C  1S          2.05276
   2        2S         -0.06988   0.32716
   3        2PX         0.00877  -0.00913   0.39536
   4        2PY        -0.00402   0.00625   0.01720   0.41661
   5        2PZ        -0.00000   0.00000  -0.00000   0.00000   0.31675
   6        3S         -0.14535   0.24644  -0.05322  -0.00266  -0.00002
   7        3PX         0.02234  -0.04011   0.11827   0.02584  -0.00002
   8        3PY        -0.01196   0.01489   0.02558   0.11433   0.00001
   9        3PZ         0.00000  -0.00000  -0.00001   0.00002   0.21027
  10        4XX        -0.01602   0.00184   0.00447  -0.01901   0.00000
  11        4YY        -0.01500  -0.00137  -0.00214   0.01463  -0.00000
  12        4ZZ        -0.01017  -0.01311  -0.00190   0.00102   0.00000
  13        4XY        -0.00045   0.00058  -0.01780   0.00057   0.00000
  14        4XZ        -0.00000   0.00000   0.00000   0.00000   0.00888
  15        4YZ         0.00000  -0.00000  -0.00000  -0.00000   0.00500
  16 2   C  1S          0.01685  -0.03270  -0.00084  -0.07996   0.00002
  17        2S         -0.03232   0.05604   0.00037   0.15951  -0.00004
  18        2PX        -0.00144   0.00168   0.01838  -0.00498  -0.00000
  19        2PY         0.07872  -0.15900   0.00022  -0.31752   0.00002
  20        2PZ        -0.00000   0.00001  -0.00001   0.00003   0.21667
  21        3S         -0.00222   0.01287   0.02183   0.14572  -0.00004
  22        3PX        -0.01486   0.02649   0.02492  -0.02007   0.00001
  23        3PY         0.00719  -0.02504   0.01209  -0.10936  -0.00000
  24        3PZ        -0.00000   0.00001  -0.00000   0.00003   0.14476
  25        4XX         0.00266  -0.00679   0.00020  -0.01150   0.00000
  26        4YY        -0.00659   0.01129  -0.00033   0.00827  -0.00000
  27        4ZZ         0.00178  -0.00378  -0.00053  -0.00487   0.00000
  28        4XY        -0.00042   0.00051  -0.01233  -0.00124   0.00000
  29        4XZ        -0.00000   0.00000   0.00000   0.00000   0.00109
  30        4YZ         0.00000  -0.00000   0.00000  -0.00000  -0.01240
  31 3   C  1S         -0.00333   0.00731   0.00467   0.01419  -0.00000
  32        2S          0.00660  -0.01599  -0.01066  -0.03745   0.00001
  33        2PX        -0.00795   0.02143   0.01423   0.03346  -0.00001
  34        2PY        -0.01152   0.02866   0.00641   0.04252  -0.00001
  35        2PZ        -0.00000   0.00001   0.00000   0.00002   0.00275
  36        3S          0.01868  -0.03333  -0.05964  -0.00378  -0.00003
  37        3PX        -0.01038   0.01939   0.02443   0.03717   0.00000
  38        3PY        -0.00919   0.01642   0.01270  -0.00224  -0.00000
  39        3PZ        -0.00000   0.00001   0.00001   0.00001  -0.00785
  40        4XX         0.00144  -0.00273  -0.00008  -0.00449   0.00000
  41        4YY        -0.00178   0.00407   0.00112   0.01046  -0.00000
  42        4ZZ        -0.00020   0.00021  -0.00024  -0.00060  -0.00000
  43        4XY        -0.00111   0.00236   0.00159   0.00623   0.00000
  44        4XZ         0.00000  -0.00000   0.00000  -0.00000  -0.01170
  45        4YZ         0.00000  -0.00000  -0.00000  -0.00000  -0.00262
  46 4   C  1S         -0.00337   0.00711   0.00783   0.00395   0.00000
  47        2S          0.00793  -0.01681  -0.01898  -0.00663  -0.00001
  48        2PX        -0.00703   0.01522   0.00959   0.02731  -0.00000
  49        2PY        -0.00376   0.01181   0.02684  -0.01871   0.00003
  50        2PZ        -0.00000   0.00000   0.00001  -0.00002  -0.13012
  51        3S          0.00425  -0.02110  -0.03088  -0.03158   0.00001
  52        3PX         0.00354  -0.00445  -0.01915   0.04441  -0.00003
  53        3PY         0.00369   0.00112   0.01373  -0.01852   0.00001
  54        3PZ         0.00000   0.00000   0.00001  -0.00002  -0.10928
  55        4XX         0.00021  -0.00058   0.00059  -0.00223   0.00000
  56        4YY        -0.00052   0.00092  -0.00027   0.00153   0.00000
  57        4ZZ         0.00007  -0.00008  -0.00048   0.00032  -0.00000
  58        4XY         0.00022  -0.00074  -0.00153   0.00057   0.00000
  59        4XZ         0.00000  -0.00000   0.00000  -0.00000  -0.00075
  60        4YZ        -0.00000   0.00000   0.00000   0.00000   0.00159
  61 5   C  1S         -0.00353   0.00627   0.01568  -0.00381  -0.00000
  62        2S          0.00627  -0.01493  -0.03810   0.00535   0.00000
  63        2PX        -0.01568   0.03810   0.06244  -0.01636   0.00001
  64        2PY        -0.00381   0.00535   0.01635  -0.00177  -0.00001
  65        2PZ         0.00000  -0.00001  -0.00001  -0.00001  -0.04192
  66        3S          0.01470  -0.01977  -0.06561   0.01837  -0.00001
  67        3PX        -0.01522   0.02671   0.05243  -0.02771   0.00004
  68        3PY         0.00395   0.00105   0.02860  -0.00744  -0.00001
  69        3PZ         0.00000  -0.00000  -0.00001  -0.00001  -0.03688
  70        4XX        -0.00192   0.00465   0.01228  -0.00451  -0.00000
  71        4YY         0.00199  -0.00435  -0.00784   0.00413  -0.00000
  72        4ZZ        -0.00067   0.00086   0.00047  -0.00127   0.00000
  73        4XY         0.00202  -0.00470  -0.00740   0.00553  -0.00000
  74        4XZ        -0.00000   0.00000   0.00000  -0.00000  -0.00929
  75        4YZ        -0.00000   0.00000   0.00000  -0.00000  -0.00950
  76 6   N  1S          0.01090  -0.01815  -0.04847   0.02594  -0.00001
  77        2S         -0.01852   0.03011   0.10279  -0.05856   0.00001
  78        2PX         0.06336  -0.13383  -0.23602   0.14812  -0.00001
  79        2PY        -0.04476   0.09962   0.18257  -0.08879   0.00006
  80        2PZ         0.00001  -0.00002  -0.00004   0.00004   0.21878
  81        3S         -0.01256   0.01379   0.10923  -0.03688   0.00005
  82        3PX         0.02575  -0.05100  -0.09516   0.05307   0.00001
  83        3PY        -0.03361   0.07262   0.11956  -0.08278   0.00006
  84        3PZ         0.00001  -0.00002  -0.00003   0.00003   0.14438
  85        4XX        -0.00348   0.00468  -0.00618  -0.00798   0.00000
  86        4YY        -0.00244   0.00458   0.00989   0.00310   0.00000
  87        4ZZ         0.00318  -0.00582  -0.00647   0.00255  -0.00001
  88        4XY         0.00618  -0.01180  -0.01559   0.00144  -0.00000
  89        4XZ        -0.00000   0.00000   0.00000  -0.00000  -0.01070
  90        4YZ         0.00000  -0.00000  -0.00000   0.00000   0.01384
  91 7   H  1S         -0.06586   0.12792  -0.21451  -0.14514   0.00001
  92        2S         -0.01931   0.04453  -0.15896  -0.12447   0.00001
  93        3PX        -0.00494   0.00859  -0.00578  -0.00634   0.00000
  94        3PY        -0.00268   0.00510  -0.00664   0.00237   0.00000
  95        3PZ         0.00000  -0.00000   0.00000   0.00000   0.00752
  96 8   H  1S          0.01296  -0.02875   0.01615  -0.04075   0.00001
  97        2S          0.01152  -0.02327   0.03768  -0.07508   0.00001
  98        3PX         0.00066  -0.00110  -0.00038  -0.00085   0.00000
  99        3PY         0.00093  -0.00181   0.00086  -0.00492  -0.00000
 100        3PZ        -0.00000   0.00000  -0.00000   0.00000   0.00516
 101 9   H  1S         -0.00777   0.01825   0.00105   0.03534  -0.00000
 102        2S         -0.00879   0.02140   0.00591   0.06230   0.00000
 103        3PX        -0.00022   0.00054   0.00021   0.00109   0.00000
 104        3PY        -0.00006   0.00006   0.00008   0.00078  -0.00000
 105        3PZ        -0.00000   0.00000  -0.00000   0.00000  -0.00033
 106 10  H  1S         -0.00154   0.00379   0.00447   0.00080   0.00000
 107        2S         -0.00523   0.01013   0.01365  -0.01208   0.00002
 108        3PX         0.00008  -0.00022  -0.00035  -0.00013  -0.00000
 109        3PY        -0.00007   0.00001  -0.00010  -0.00012   0.00000
 110        3PZ        -0.00000   0.00000   0.00000  -0.00000  -0.00371
 111 11  H  1S         -0.00821   0.02186   0.03749  -0.01979   0.00000
 112        2S         -0.00664   0.02194   0.05558  -0.02370  -0.00001
 113        3PX        -0.00013   0.00008   0.00064  -0.00008   0.00000
 114        3PY        -0.00011   0.00013   0.00003   0.00044  -0.00000
 115        3PZ        -0.00000  -0.00000  -0.00000  -0.00000  -0.00174
                           6         7         8         9        10
   6        3S          0.22377
   7        3PX        -0.03505   0.04976
   8        3PY         0.01273   0.00853   0.04088
   9        3PZ        -0.00001  -0.00001   0.00001   0.14072
  10        4XX         0.00087  -0.00196  -0.00286   0.00000   0.00190
  11        4YY        -0.00159   0.00156   0.00154  -0.00000  -0.00128
  12        4ZZ        -0.00827   0.00104  -0.00009   0.00000  -0.00007
  13        4XY         0.00547  -0.00497   0.00084   0.00000   0.00028
  14        4XZ         0.00000   0.00000   0.00000   0.00583   0.00000
  15        4YZ        -0.00000  -0.00000  -0.00000   0.00295   0.00000
  16 2   C  1S          0.00552  -0.00053  -0.00959   0.00001   0.00361
  17        2S          0.01776   0.01272   0.03109  -0.00002  -0.00852
  18        2PX         0.02022   0.01831  -0.01120   0.00000   0.00017
  19        2PY        -0.12440   0.00440  -0.09216   0.00000   0.01505
  20        2PZ        -0.00005  -0.00003  -0.00001   0.13571  -0.00000
  21        3S         -0.03068   0.01772   0.02062  -0.00002  -0.00924
  22        3PX         0.02499   0.00145  -0.00051   0.00001   0.00369
  23        3PY        -0.01355   0.00155  -0.02368  -0.00001   0.00698
  24        3PZ        -0.00003  -0.00002  -0.00001   0.09136  -0.00000
  25        4XX        -0.00696   0.00033  -0.00410   0.00000   0.00048
  26        4YY         0.00944  -0.00146   0.00332  -0.00000  -0.00022
  27        4ZZ        -0.00188  -0.00021  -0.00121   0.00000   0.00016
  28        4XY         0.00287  -0.00344  -0.00133   0.00000  -0.00016
  29        4XZ        -0.00000  -0.00000  -0.00000   0.00010  -0.00000
  30        4YZ        -0.00000   0.00000  -0.00000  -0.00850   0.00000
  31 3   C  1S          0.00400  -0.00083   0.00742  -0.00000   0.00000
  32        2S         -0.01740  -0.00271  -0.01979   0.00000   0.00049
  33        2PX        -0.00527  -0.01121   0.01468  -0.00000  -0.00174
  34        2PY         0.05424  -0.01295   0.03735  -0.00000  -0.00037
  35        2PZ        -0.00003  -0.00002  -0.00001  -0.01471  -0.00000
  36        3S         -0.01362  -0.00417  -0.01898  -0.00002  -0.00555
  37        3PX         0.00654   0.00318   0.01261   0.00000  -0.00185
  38        3PY         0.01721  -0.00707   0.00916  -0.00000   0.00158
  39        3PZ        -0.00002  -0.00001  -0.00001  -0.01585  -0.00000
  40        4XX        -0.00358   0.00019  -0.00184   0.00000   0.00019
  41        4YY         0.00411   0.00029   0.00351  -0.00000  -0.00046
  42        4ZZ         0.00046  -0.00019   0.00009  -0.00000   0.00004
  43        4XY         0.00257   0.00104   0.00173   0.00000  -0.00024
  44        4XZ         0.00000   0.00000  -0.00000  -0.00807   0.00000
  45        4YZ        -0.00000   0.00000  -0.00000  -0.00115  -0.00000
  46 4   C  1S          0.01677   0.00455   0.00862   0.00000   0.00063
  47        2S         -0.02422  -0.00347  -0.01324  -0.00000  -0.00157
  48        2PX         0.04275   0.00389   0.01810  -0.00001  -0.00037
  49        2PY        -0.00208  -0.00948   0.00638   0.00002   0.00375
  50        2PZ         0.00002   0.00001  -0.00000  -0.10325   0.00000
  51        3S         -0.03993  -0.01014  -0.02623   0.00000  -0.00157
  52        3PX         0.01095   0.00237   0.00915  -0.00002  -0.00426
  53        3PY         0.00097  -0.00456   0.00555   0.00001   0.00368
  54        3PZ         0.00001   0.00001  -0.00000  -0.08369   0.00000
  55        4XX        -0.00114   0.00016  -0.00104   0.00000   0.00015
  56        4YY         0.00128  -0.00061   0.00090   0.00000   0.00004
  57        4ZZ         0.00039   0.00001   0.00023  -0.00000  -0.00007
  58        4XY        -0.00054  -0.00114   0.00122   0.00000   0.00046
  59        4XZ         0.00000   0.00000   0.00000   0.00014   0.00000
  60        4YZ        -0.00000  -0.00000  -0.00000   0.00114  -0.00000
  61 5   C  1S          0.01470   0.01522   0.00395  -0.00000  -0.00192
  62        2S         -0.01977  -0.02671   0.00105   0.00001   0.00465
  63        2PX         0.06561   0.05243  -0.02860   0.00000  -0.01228
  64        2PY         0.01837   0.02771  -0.00744  -0.00001  -0.00451
  65        2PZ         0.00004   0.00002   0.00002  -0.03689   0.00000
  66        3S          0.00402  -0.02153   0.00722   0.00000   0.00125
  67        3PX         0.02153   0.01682  -0.01172   0.00002  -0.00075
  68        3PY         0.00722   0.01172   0.00455  -0.00001   0.00129
  69        3PZ         0.00003   0.00001   0.00002  -0.02959   0.00000
  70        4XX         0.00125   0.00074   0.00129  -0.00000   0.00114
  71        4YY        -0.00387  -0.00066  -0.00151  -0.00000  -0.00091
  72        4ZZ         0.00194   0.00106  -0.00034   0.00000  -0.00022
  73        4XY        -0.00653  -0.00381   0.00102  -0.00000  -0.00000
  74        4XZ         0.00000   0.00000  -0.00000  -0.00612  -0.00000
  75        4YZ         0.00000   0.00000  -0.00000  -0.00704   0.00000
  76 6   N  1S          0.03530   0.00874   0.01491  -0.00000  -0.00318
  77        2S         -0.07402  -0.01378  -0.02877   0.00000   0.00604
  78        2PX        -0.10497  -0.07966   0.03990   0.00000  -0.00047
  79        2PY         0.08124   0.01227   0.04417   0.00003   0.02519
  80        2PZ         0.00002   0.00001   0.00004   0.14551  -0.00000
  81        3S         -0.11202  -0.01452  -0.03528   0.00003   0.00259
  82        3PX        -0.03748  -0.03167   0.01424   0.00001   0.00006
  83        3PY         0.06211   0.00449   0.02608   0.00003   0.01872
  84        3PZ         0.00001   0.00001   0.00002   0.09703  -0.00000
  85        4XX         0.00410  -0.00299  -0.00281   0.00000   0.00026
  86        4YY         0.00566   0.00223   0.00491   0.00000   0.00096
  87        4ZZ        -0.00203   0.00047  -0.00059  -0.00000  -0.00075
  88        4XY        -0.00903  -0.00499   0.00005  -0.00000   0.00026
  89        4XZ         0.00000   0.00000  -0.00000  -0.00737  -0.00000
  90        4YZ         0.00000   0.00000   0.00000   0.00898  -0.00000
  91 7   H  1S          0.12757  -0.08736  -0.04086   0.00001   0.00683
  92        2S          0.05889  -0.06023  -0.03337   0.00001   0.00684
  93        3PX         0.00716  -0.00305  -0.00177  -0.00000   0.00027
  94        3PY         0.00456  -0.00239   0.00039   0.00000  -0.00020
  95        3PZ        -0.00000  -0.00000   0.00000   0.00502   0.00000
  96 8   H  1S         -0.04802   0.00335  -0.01087   0.00001   0.00225
  97        2S         -0.03753   0.00417  -0.01357   0.00000   0.00551
  98        3PX        -0.00171   0.00013  -0.00047   0.00000   0.00003
  99        3PY        -0.00072   0.00033  -0.00136  -0.00000   0.00023
 100        3PZ        -0.00000  -0.00000  -0.00000   0.00325  -0.00000
 101 9   H  1S          0.03281  -0.00724   0.02158   0.00000  -0.00130
 102        2S          0.03310  -0.00186   0.02824   0.00000  -0.00250
 103        3PX         0.00003  -0.00021   0.00041   0.00000  -0.00005
 104        3PY        -0.00055   0.00036  -0.00012  -0.00000  -0.00005
 105        3PZ        -0.00000  -0.00000  -0.00000  -0.00061  -0.00000
 106 10  H  1S          0.01015  -0.00432   0.00667   0.00000   0.00180
 107        2S          0.01534  -0.00424   0.00807   0.00001   0.00430
 108        3PX        -0.00013   0.00015  -0.00015  -0.00000  -0.00001
 109        3PY        -0.00048  -0.00026   0.00005   0.00000   0.00005
 110        3PZ         0.00000   0.00000  -0.00000  -0.00286  -0.00000
 111 11  H  1S          0.02744   0.01369  -0.01129   0.00000  -0.00130
 112        2S          0.02544   0.01980  -0.00681  -0.00001  -0.00022
 113        3PX         0.00016   0.00051   0.00033   0.00000  -0.00000
 114        3PY         0.00066   0.00055  -0.00046  -0.00000  -0.00022
 115        3PZ         0.00000   0.00000   0.00000  -0.00135   0.00000
                          11        12        13        14        15
  11        4YY         0.00149
  12        4ZZ         0.00013   0.00066
  13        4XY        -0.00049   0.00016   0.00222
  14        4XZ        -0.00000   0.00000  -0.00000   0.00067
  15        4YZ        -0.00000  -0.00000   0.00000  -0.00033   0.00077
  16 2   C  1S         -0.00734   0.00152   0.00036   0.00000   0.00000
  17        2S          0.01275  -0.00341  -0.00063   0.00000  -0.00000
  18        2PX         0.00106  -0.00010   0.01458  -0.00000  -0.00000
  19        2PY        -0.00932   0.00426   0.00079   0.00000   0.00000
  20        2PZ         0.00000  -0.00000  -0.00000  -0.00042   0.01419
  21        3S          0.01340  -0.00195  -0.00535  -0.00000   0.00000
  22        3PX        -0.00290  -0.00096   0.00600  -0.00000   0.00000
  23        3PY        -0.00494   0.00051   0.00157   0.00000  -0.00000
  24        3PZ         0.00000  -0.00000  -0.00000  -0.00102   0.01008
  25        4XX        -0.00021   0.00017  -0.00004   0.00000  -0.00000
  26        4YY         0.00011  -0.00036  -0.00006  -0.00000  -0.00000
  27        4ZZ        -0.00033   0.00020  -0.00003   0.00000   0.00000
  28        4XY         0.00013   0.00005   0.00101  -0.00000  -0.00000
  29        4XZ         0.00000  -0.00000   0.00000  -0.00011   0.00042
  30        4YZ         0.00000   0.00000  -0.00000  -0.00042  -0.00000
  31 3   C  1S         -0.00048  -0.00014  -0.00205   0.00000  -0.00000
  32        2S          0.00093   0.00021   0.00427  -0.00000   0.00000
  33        2PX        -0.00276   0.00008  -0.00905   0.00000  -0.00000
  34        2PY        -0.00356   0.00031  -0.00627   0.00000  -0.00000
  35        2PZ         0.00000  -0.00000  -0.00000  -0.00440   0.01167
  36        3S          0.00445   0.00157   0.00362   0.00000  -0.00000
  37        3PX         0.00027  -0.00039  -0.00362   0.00000  -0.00000
  38        3PY        -0.00214  -0.00034  -0.00256  -0.00000   0.00000
  39        3PZ         0.00000  -0.00000  -0.00000  -0.00355   0.00790
  40        4XX         0.00007   0.00003  -0.00005  -0.00000   0.00000
  41        4YY         0.00022  -0.00010  -0.00016   0.00000  -0.00000
  42        4ZZ        -0.00009   0.00001  -0.00014  -0.00000  -0.00000
  43        4XY         0.00035  -0.00009   0.00041  -0.00000   0.00000
  44        4XZ         0.00000   0.00000   0.00000   0.00001  -0.00047
  45        4YZ         0.00000   0.00000   0.00000  -0.00003  -0.00031
  46 4   C  1S         -0.00057  -0.00020   0.00087  -0.00000   0.00000
  47        2S          0.00158   0.00027  -0.00209   0.00000  -0.00000
  48        2PX         0.00084  -0.00001   0.00134  -0.00000   0.00000
  49        2PY        -0.00383   0.00029   0.00137  -0.00000   0.00000
  50        2PZ        -0.00000  -0.00000  -0.00000  -0.00002   0.00017
  51        3S          0.00336  -0.00007  -0.00504  -0.00000   0.00000
  52        3PX         0.00352   0.00058   0.00024   0.00000  -0.00000
  53        3PY        -0.00401   0.00033   0.00150   0.00000  -0.00000
  54        3PZ        -0.00000  -0.00000  -0.00000  -0.00073  -0.00018
  55        4XX         0.00003   0.00000   0.00044  -0.00000   0.00000
  56        4YY        -0.00014  -0.00001  -0.00017   0.00000  -0.00000
  57        4ZZ         0.00004   0.00002  -0.00003  -0.00000   0.00000
  58        4XY        -0.00024   0.00000   0.00048  -0.00000   0.00000
  59        4XZ        -0.00000   0.00000   0.00000   0.00011  -0.00041
  60        4YZ         0.00000  -0.00000  -0.00000  -0.00044   0.00056
  61 5   C  1S          0.00199  -0.00067  -0.00202   0.00000  -0.00000
  62        2S         -0.00435   0.00086   0.00470  -0.00000   0.00000
  63        2PX         0.00784  -0.00047  -0.00740   0.00000  -0.00000
  64        2PY         0.00413  -0.00127  -0.00553   0.00000  -0.00000
  65        2PZ        -0.00000   0.00000   0.00000   0.00929  -0.00950
  66        3S         -0.00387   0.00194   0.00653  -0.00000   0.00000
  67        3PX         0.00066  -0.00106  -0.00381   0.00000   0.00000
  68        3PY        -0.00151  -0.00034  -0.00102   0.00000  -0.00000
  69        3PZ        -0.00000   0.00000   0.00000   0.00611  -0.00704
  70        4XX        -0.00091  -0.00022   0.00000  -0.00000   0.00000
  71        4YY         0.00085   0.00015  -0.00032  -0.00000  -0.00000
  72        4ZZ         0.00015  -0.00002  -0.00012   0.00000  -0.00000
  73        4XY         0.00032   0.00012  -0.00008  -0.00000   0.00000
  74        4XZ         0.00000  -0.00000  -0.00000  -0.00067   0.00031
  75        4YZ        -0.00000  -0.00000  -0.00000  -0.00031   0.00019
  76 6   N  1S         -0.00101   0.00199   0.00840  -0.00000   0.00000
  77        2S          0.00214  -0.00405  -0.01722   0.00000  -0.00000
  78        2PX        -0.00045   0.00673   0.01720  -0.00000   0.00000
  79        2PY        -0.02304  -0.00407   0.00986   0.00000   0.00000
  80        2PZ         0.00000   0.00000   0.00000   0.01655  -0.00891
  81        3S          0.00713  -0.00413  -0.02451   0.00000  -0.00000
  82        3PX        -0.00028   0.00257   0.00757  -0.00000   0.00000
  83        3PY        -0.01716  -0.00285   0.00764   0.00000   0.00000
  84        3PZ         0.00000   0.00000   0.00000   0.01120  -0.00659
  85        4XX        -0.00019  -0.00014   0.00023   0.00000  -0.00000
  86        4YY        -0.00106  -0.00013   0.00085   0.00000  -0.00000
  87        4ZZ         0.00047   0.00030   0.00012  -0.00000   0.00000
  88        4XY        -0.00025   0.00050   0.00099  -0.00000   0.00000
  89        4XZ         0.00000  -0.00000  -0.00000   0.00001  -0.00043
  90        4YZ         0.00000   0.00000   0.00000   0.00098  -0.00040
  91 7   H  1S         -0.00572  -0.00406   0.01221  -0.00000   0.00000
  92        2S         -0.00597  -0.00114   0.01156  -0.00000   0.00000
  93        3PX        -0.00017  -0.00032   0.00019  -0.00000  -0.00000
  94        3PY         0.00016  -0.00015   0.00023  -0.00000   0.00000
  95        3PZ        -0.00000   0.00000   0.00000   0.00019   0.00013
  96 8   H  1S          0.00076  -0.00011  -0.00872   0.00000   0.00000
  97        2S         -0.00359   0.00002  -0.00674  -0.00000   0.00000
  98        3PX         0.00016  -0.00002  -0.00016  -0.00000   0.00000
  99        3PY        -0.00024   0.00007   0.00021  -0.00000  -0.00000
 100        3PZ         0.00000  -0.00000   0.00000  -0.00003   0.00035
 101 9   H  1S         -0.00100   0.00007  -0.00221   0.00000  -0.00000
 102        2S          0.00003  -0.00011  -0.00249   0.00000  -0.00000
 103        3PX        -0.00003  -0.00000  -0.00014   0.00000  -0.00000
 104        3PY         0.00009  -0.00002  -0.00001  -0.00000   0.00000
 105        3PZ         0.00000  -0.00000  -0.00000  -0.00013   0.00029
 106 10  H  1S         -0.00094   0.00013   0.00204  -0.00000   0.00000
 107        2S         -0.00296  -0.00020   0.00427  -0.00000   0.00000
 108        3PX         0.00003  -0.00001   0.00004  -0.00000   0.00000
 109        3PY        -0.00006   0.00000   0.00003  -0.00000   0.00000
 110        3PZ         0.00000  -0.00000  -0.00000  -0.00002  -0.00001
 111 11  H  1S         -0.00075   0.00006  -0.00014   0.00000  -0.00000
 112        2S         -0.00146  -0.00025  -0.00045   0.00000  -0.00000
 113        3PX         0.00004  -0.00004  -0.00008  -0.00000   0.00000
 114        3PY         0.00015   0.00001  -0.00009   0.00000  -0.00000
 115        3PZ        -0.00000   0.00000   0.00000   0.00020  -0.00024
                          16        17        18        19        20
  16 2   C  1S          2.05447
  17        2S         -0.06628   0.31511
  18        2PX         0.00031   0.00384   0.41189
  19        2PY         0.00140  -0.00503   0.00036   0.41591
  20        2PZ         0.00000  -0.00001  -0.00001  -0.00000   0.32181
  21        3S         -0.17133   0.26025  -0.01455  -0.00664   0.00004
  22        3PX         0.00256  -0.02315   0.14617  -0.00288   0.00005
  23        3PY         0.00101   0.00610  -0.00689   0.13961  -0.00003
  24        3PZ         0.00000  -0.00002  -0.00000  -0.00002   0.22178
  25        4XX        -0.01593   0.00023  -0.00079   0.01508  -0.00000
  26        4YY        -0.01583   0.00018  -0.00215  -0.01321  -0.00000
  27        4ZZ        -0.01046  -0.01205  -0.00014  -0.00005   0.00000
  28        4XY         0.00015  -0.00011   0.01527   0.00066  -0.00000
  29        4XZ         0.00000  -0.00000   0.00001  -0.00000   0.00812
  30        4YZ        -0.00000   0.00000  -0.00000   0.00001  -0.00504
  31 3   C  1S          0.01685  -0.03275  -0.06800  -0.03845  -0.00002
  32        2S         -0.03303   0.05591   0.13636   0.08066   0.00004
  33        2PX         0.06782  -0.13779  -0.23270  -0.14551  -0.00004
  34        2PY         0.03992  -0.07787  -0.14045  -0.06682  -0.00001
  35        2PZ         0.00002  -0.00004  -0.00003  -0.00004   0.20962
  36        3S          0.00087   0.03080   0.11760   0.02887  -0.00003
  37        3PX         0.00910  -0.02608  -0.06926  -0.06929  -0.00001
  38        3PY         0.00609  -0.02921  -0.03808  -0.00945   0.00005
  39        3PZ         0.00001  -0.00002  -0.00001  -0.00003   0.13594
  40        4XX        -0.00467   0.00701  -0.00275   0.00977   0.00000
  41        4YY         0.00023  -0.00185   0.00003  -0.01300   0.00000
  42        4ZZ         0.00162  -0.00372  -0.00435  -0.00195  -0.00000
  43        4XY        -0.00477   0.00916   0.01212  -0.00121   0.00000
  44        4XZ        -0.00000   0.00000   0.00000   0.00000  -0.01132
  45        4YZ        -0.00000   0.00000   0.00000   0.00000  -0.00713
  46 4   C  1S         -0.00280   0.00694   0.01469   0.00339   0.00000
  47        2S          0.00694  -0.01515  -0.03739  -0.00932  -0.00002
  48        2PX        -0.01469   0.03739   0.05236   0.01029   0.00001
  49        2PY         0.00339  -0.00932  -0.01029   0.01109   0.00000
  50        2PZ         0.00000  -0.00000  -0.00001  -0.00000  -0.01350
  51        3S         -0.00479  -0.00610  -0.04298   0.01437   0.00006
  52        3PX        -0.00613   0.02371   0.02516  -0.02817  -0.00004
  53        3PY         0.00884  -0.01461  -0.03353   0.02018  -0.00003
  54        3PZ         0.00000  -0.00000  -0.00001   0.00001  -0.02385
  55        4XX        -0.00177   0.00392   0.01075   0.00443   0.00000
  56        4YY         0.00130  -0.00252  -0.00520  -0.00232  -0.00000
  57        4ZZ         0.00006   0.00013  -0.00063  -0.00006   0.00000
  58        4XY        -0.00090   0.00194   0.00374   0.00269   0.00000
  59        4XZ        -0.00000   0.00000   0.00000   0.00000  -0.00779
  60        4YZ         0.00000  -0.00000  -0.00000  -0.00000   0.00848
  61 5   C  1S         -0.00337   0.00793   0.00702  -0.00377  -0.00001
  62        2S          0.00711  -0.01681  -0.01522   0.01181   0.00002
  63        2PX        -0.00783   0.01898   0.00959  -0.02685  -0.00000
  64        2PY         0.00395  -0.00663  -0.02730  -0.01871  -0.00001
  65        2PZ        -0.00000   0.00002   0.00000   0.00002  -0.13011
  66        3S          0.01677  -0.02422  -0.04276  -0.00208  -0.00002
  67        3PX        -0.00455   0.00347   0.00389   0.00948   0.00005
  68        3PY         0.00862  -0.01324  -0.01810   0.00638  -0.00003
  69        3PZ        -0.00000   0.00001  -0.00000   0.00001  -0.10325
  70        4XX         0.00063  -0.00157   0.00037   0.00375  -0.00000
  71        4YY        -0.00057   0.00158  -0.00084  -0.00383  -0.00000
  72        4ZZ        -0.00020   0.00027   0.00001   0.00029  -0.00000
  73        4XY        -0.00087   0.00209   0.00134  -0.00137   0.00000
  74        4XZ        -0.00000   0.00000   0.00000   0.00000   0.00002
  75        4YZ         0.00000  -0.00000  -0.00000   0.00000   0.00017
  76 6   N  1S         -0.00033   0.00209   0.00613  -0.00344   0.00000
  77        2S          0.00300  -0.00618  -0.01483   0.01475  -0.00001
  78        2PX        -0.00958   0.02079   0.01801  -0.03331  -0.00000
  79        2PY         0.02181  -0.05293  -0.01164   0.08170  -0.00000
  80        2PZ        -0.00000   0.00002   0.00001  -0.00001  -0.02603
  81        3S         -0.01198   0.00897  -0.03807  -0.00428   0.00005
  82        3PX        -0.00315   0.00844   0.02736  -0.00801   0.00001
  83        3PY         0.01465  -0.04177  -0.01233   0.07486   0.00002
  84        3PZ        -0.00000   0.00001   0.00001  -0.00001  -0.02991
  85        4XX         0.00121  -0.00173   0.00057   0.00357  -0.00000
  86        4YY         0.00062  -0.00087   0.00071  -0.00132  -0.00000
  87        4ZZ         0.00021   0.00056  -0.00029  -0.00022  -0.00000
  88        4XY         0.00090  -0.00178  -0.00045   0.00572  -0.00000
[...]
    A5        2.09926  -0.00001   0.00000  -0.00021  -0.00021   2.09905
    A6        2.11741   0.00002   0.00000   0.00022   0.00022   2.11763
    A7        2.06864  -0.00001   0.00000  -0.00003  -0.00003   2.06862
    A8        2.10728   0.00001   0.00000   0.00001   0.00001   2.10728
    A9        2.10726   0.00001   0.00000   0.00002   0.00002   2.10728
   A10        2.06652  -0.00001   0.00000  -0.00002  -0.00002   2.06650
   A11        2.11740   0.00002   0.00000   0.00023   0.00023   2.11763
   A12        2.09927  -0.00002   0.00000  -0.00021  -0.00021   2.09905
   A13        2.16101   0.00000   0.00000  -0.00004  -0.00004   2.16097
   A14        2.09695  -0.00006   0.00000  -0.00054  -0.00054   2.09641
   A15        2.02523   0.00006   0.00000   0.00058   0.00058   2.02581
   A16        2.04267   0.00003   0.00000   0.00014   0.00014   2.04282
    D1        0.00000   0.00000   0.00000  -0.00000  -0.00000   0.00000
    D2       -3.14158  -0.00000   0.00000  -0.00002  -0.00002   3.14159
    D3        3.14157   0.00000   0.00000   0.00002   0.00002  -3.14159
    D4       -0.00000  -0.00000   0.00000   0.00000   0.00000   0.00000
    D5       -0.00008   0.00000   0.00000   0.00008   0.00008   0.00000
    D6        3.14153   0.00000   0.00000   0.00006   0.00006  -3.14159
    D7        0.00004  -0.00000   0.00000  -0.00004  -0.00004  -0.00000
    D8       -3.14159  -0.00000   0.00000  -0.00001  -0.00001  -3.14159
    D9       -3.14157  -0.00000   0.00000  -0.00002  -0.00002   3.14159
   D10       -0.00001   0.00000   0.00000   0.00001   0.00001   0.00000
   D11        0.00000  -0.00000   0.00000  -0.00000  -0.00000   0.00000
   D12        3.14159  -0.00000   0.00000   0.00000   0.00000  -3.14159
   D13       -3.14156  -0.00000   0.00000  -0.00003  -0.00003   3.14159
   D14        0.00003  -0.00000   0.00000  -0.00003  -0.00003  -0.00000
   D15       -0.00009   0.00000   0.00000   0.00009   0.00009   0.00000
   D16       -3.14152  -0.00000   0.00000  -0.00008  -0.00008   3.14159
   D17        3.14151   0.00000   0.00000   0.00008   0.00008  -3.14159
   D18        0.00008  -0.00000   0.00000  -0.00008  -0.00008  -0.00000
   D19        0.00012  -0.00000   0.00000  -0.00012  -0.00012  -0.00000
   D20        3.14156   0.00000   0.00000   0.00004   0.00004   3.14159
         Item               Value     Threshold  Converged?
 Maximum Force            0.000154     0.000450     YES
 RMS     Force            0.000047     0.000300     YES
 Maximum Displacement     0.000652     0.001800     YES
 RMS     Displacement     0.000186     0.001200     YES
 Predicted change in Energy=-1.899303D-07
 Optimization completed.
    -- Stationary point found.
                           ----------------------------
                           !   Optimized Parameters   !
                           ! (Angstroms and Degrees)  !
 --------------------------                            --------------------------
 ! Name  Definition              Value          Derivative Info.                !
 --------------------------------------------------------------------------------
 ! R1    R(1,2)                  1.392          -DE/DX =    0.0001              !
 ! R2    R(1,6)                  1.3352         -DE/DX =   -0.0002              !
 ! R3    R(1,7)                  1.0887         -DE/DX =   -0.0001              !
 ! R4    R(2,3)                  1.3908         -DE/DX =   -0.0001              !
 ! R5    R(2,8)                  1.0852         -DE/DX =    0.0                 !
 ! R6    R(3,4)                  1.3908         -DE/DX =   -0.0001              !
 ! R7    R(3,9)                  1.086          -DE/DX =    0.0                 !
 ! R8    R(4,5)                  1.392          -DE/DX =    0.0001              !
 ! R9    R(4,10)                 1.0852         -DE/DX =    0.0                 !
 ! R10   R(5,6)                  1.3352         -DE/DX =   -0.0002              !
 ! R11   R(5,11)                 1.0887         -DE/DX =   -0.0001              !
 ! A1    A(2,1,6)              123.8167         -DE/DX =    0.0                 !
 ! A2    A(2,1,7)              120.1456         -DE/DX =   -0.0001              !
 ! A3    A(6,1,7)              116.0377         -DE/DX =    0.0001              !
 ! A4    A(1,2,3)              118.4028         -DE/DX =    0.0                 !
 ! A5    A(1,2,8)              120.2786         -DE/DX =    0.0                 !
 ! A6    A(3,2,8)              121.3187         -DE/DX =    0.0                 !
 ! A7    A(2,3,4)              118.5245         -DE/DX =    0.0                 !
 ! A8    A(2,3,9)              120.7381         -DE/DX =    0.0                 !
 ! A9    A(4,3,9)              120.7374         -DE/DX =    0.0                 !
 ! A10   A(3,4,5)              118.4029         -DE/DX =    0.0                 !
 ! A11   A(3,4,10)             121.318          -DE/DX =    0.0                 !
 ! A12   A(5,4,10)             120.279          -DE/DX =    0.0                 !
 ! A13   A(4,5,6)              123.8165         -DE/DX =    0.0                 !
 ! A14   A(4,5,11)             120.1461         -DE/DX =   -0.0001              !
 ! A15   A(6,5,11)             116.0373         -DE/DX =    0.0001              !
 ! A16   A(1,6,5)              117.0366         -DE/DX =    0.0                 !
 ! D1    D(6,1,2,3)              0.0            -DE/DX =    0.0                 !
 ! D2    D(6,1,2,8)            180.001          -DE/DX =    0.0                 !
 ! D3    D(7,1,2,3)           -180.001          -DE/DX =    0.0                 !
 ! D4    D(7,1,2,8)             -0.0001         -DE/DX =    0.0                 !
 ! D5    D(2,1,6,5)             -0.0044         -DE/DX =    0.0                 !
 ! D6    D(7,1,6,5)           -180.0034         -DE/DX =    0.0                 !
 ! D7    D(1,2,3,4)              0.0021         -DE/DX =    0.0                 !
 ! D8    D(1,2,3,9)           -179.9997         -DE/DX =    0.0                 !
 ! D9    D(8,2,3,4)            180.0011         -DE/DX =    0.0                 !
 ! D10   D(8,2,3,9)             -0.0006         -DE/DX =    0.0                 !
 ! D11   D(2,3,4,5)              0.0002         -DE/DX =    0.0                 !
 ! D12   D(2,3,4,10)          -180.0002         -DE/DX =    0.0                 !
 ! D13   D(9,3,4,5)            180.0019         -DE/DX =    0.0                 !
 ! D14   D(9,3,4,10)             0.0016         -DE/DX =    0.0                 !
 ! D15   D(3,4,5,6)             -0.005          -DE/DX =    0.0                 !
 ! D16   D(3,4,5,11)           180.0044         -DE/DX =    0.0                 !
 ! D17   D(10,4,5,6)          -180.0046         -DE/DX =    0.0                 !
 ! D18   D(10,4,5,11)            0.0047         -DE/DX =    0.0                 !
 ! D19   D(4,5,6,1)              0.007          -DE/DX =    0.0                 !
 ! D20   D(11,5,6,1)           179.998          -DE/DX =    0.0                 !
 --------------------------------------------------------------------------------
 GradGradGradGradGradGradGradGradGradGradGradGradGradGradGradGradGradGrad

 Leave Link  103 at Wed Jun 15 23:24:49 2022, MaxMem=  1342177280 cpu:               0.4 elap:               0.1
 (Enter /gpfs1/apps/software/Gaussian16/AVX/g16/l9999.exe)

 ----------------------------------------------------------------------

 Electric dipole moment (input orientation):
 (Debye = 10**-18 statcoulomb cm , SI units = C m)
                  (au)            (Debye)         (10**-30 SI)
   Tot        0.987647D+00      0.251035D+01      0.837362D+01
   x         -0.330738D-03     -0.840652D-03     -0.280411D-02
   y         -0.987647D+00     -0.251035D+01     -0.837362D+01
   z          0.364456D-04      0.926354D-04      0.308998D-03

 Dipole polarizability, Alpha (input orientation).
 (esu units = cm**3 , SI units = C**2 m**2 J**-1)
 Alpha(0;0):
               (au)            (10**-24 esu)      (10**-40 SI)
   iso        0.572233D+02      0.847962D+01      0.943485D+01
   aniso      0.519848D+02      0.770335D+01      0.857113D+01
   xx         0.779217D+02      0.115468D+02      0.128476D+02
   yx        -0.236562D-02     -0.350549D-03     -0.390038D-03
   yy         0.709467D+02      0.105132D+02      0.116975D+02
   zx         0.141196D-03      0.209231D-04      0.232800D-04
   zy        -0.106369D-02     -0.157623D-03     -0.175379D-03
   zz         0.228016D+02      0.337884D+01      0.375947D+01

 ----------------------------------------------------------------------

 Dipole orientation:
     6         -2.15177767          0.00069511         -1.29265921
     6         -2.25894793          0.00071207          1.33573694
     6          0.00000192         -0.00009874          2.67901200
     6          2.25895712         -0.00080458          1.33572553
     6          2.15178792         -0.00065745         -1.29265898
     7         -0.00000108         -0.00005774         -2.61032932
     1         -3.88733267          0.00128620         -2.39750013
     1         -4.07051225          0.00131601          2.29667937
     1          0.00001698         -0.00012559          4.73132317
     1          4.07051314         -0.00144562          2.29668390
     1          3.88733239         -0.00133269         -2.39751425

 Electric dipole moment (dipole orientation):
 (Debye = 10**-18 statcoulomb cm , SI units = C m)
                  (au)            (Debye)         (10**-30 SI)
   Tot        0.987647D+00      0.251035D+01      0.837362D+01
   x          0.000000D+00      0.000000D+00      0.000000D+00
   y          0.000000D+00      0.000000D+00      0.000000D+00
   z          0.987647D+00      0.251035D+01      0.837362D+01

 Dipole polarizability, Alpha (dipole orientation).
 (esu units = cm**3 , SI units = C**2 m**2 J**-1)
 Alpha(0;0):
               (au)            (10**-24 esu)      (10**-40 SI)
   iso        0.572233D+02      0.847962D+01      0.943485D+01
   aniso      0.519848D+02      0.770335D+01      0.857113D+01
   xx         0.779217D+02      0.115468D+02      0.128476D+02
   yx        -0.183168D-01     -0.271427D-02     -0.302003D-02
   yy         0.228016D+02      0.337884D+01      0.375947D+01
   zx         0.296353D-04      0.439149D-05      0.488619D-05
   zy        -0.712990D-03     -0.105654D-03     -0.117556D-03
   zz         0.709467D+02      0.105132D+02      0.116975D+02

 ----------------------------------------------------------------------
 Unable to Open any file for archive entry.
 1\1\GINC-KENNEDY56\Freq\RPBE1PBE\6-31G(d,p)\C5H5N1\OSL\15-Jun-2022\0\\
 #P Geom=AllCheck Guess=TCheck SCRF=Check GenChk RPBE1PBE/6-31G(d,p) Fr
 eq\\Pyridine_Optimisation_Frequencies_PBE1PBE__GD3BJ__Toluene_6_31G_d_
 p_\\0,1\C,-1.1384426338,0.6844270675,-0.000038719\C,-1.1956204602,-0.7
 064412033,0.0000025905\C,-0.0004737073,-1.4176720193,0.000000062\C,1.1
 95151936,-0.7072357768,0.0000006232\C,1.1389061893,0.6836643235,0.0000
 081626\N,0.000462009,1.3813267112,-0.0000815268\H,-2.0566630014,1.2693
 912275,-0.0000550581\H,-2.1544293023,-1.2146289901,0.0000199217\H,-0.0
 008294212,-2.5037082599,0.0000259359\H,2.1536158151,-1.2160740434,0.00
 00011892\H,2.0575125769,1.2680209632,-0.0000631811\\Version=ES64L-G16R
 evC.01\State=1-A\HF=-248.0069601\RMSD=1.171e-09\RMSF=1.016e-04\ZeroPoi
 nt=0.0896466\Thermal=0.0939093\ETot=-247.9130508\HTot=-247.9121066\GTo
 t=-247.9447079\Dipole=-0.0003307,-0.9876467,0.0000364\DipoleDeriv=0.31
 45585,-0.0642238,-0.0000042,-0.2575848,0.3463251,-0.0000182,0.0000063,
 0.0000003,0.0118309,-0.0576154,0.1278672,-0.000012,0.2798375,-0.212484
 1,0.0000053,-0.0000032,0.0000037,-0.1005419,0.1598856,0.0000169,0.0000
 052,0.0000185,0.216749,0.0000011,0.0000022,-0.0000141,-0.0911952,-0.05
 78891,-0.1279694,-0.0000003,-0.2799414,-0.2122047,0.0000034,0.0000183,
 0.0000107,-0.1005429,0.3147691,0.0642449,-0.0000025,0.2576091,0.346099
 3,-0.000001,-0.00005,-0.0000393,0.0118288,-0.4767519,-0.0000296,0.0000
 136,-0.0000319,-0.5575205,0.0000005,-0.0000011,0.0000032,-0.3204983,-0
 .0896603,0.0803333,-0.0000008,0.0950394,0.0209224,0.0000036,-0.000003,
 0.0000045,0.1023967,-0.0536433,-0.067693,0.0000038,-0.0703918,0.056126
 3,0.0000028,0.000003,-0.0000013,0.1299035,0.0896697,-0.0000552,0.00000
 12,-0.0000564,-0.0810847,0.0000018,-0.0000022,0.0000101,0.1245168,-0.0
 535495,0.067766,-0.0000015,0.0704685,0.0560321,0.0000007,-0.0000083,-0
 .000005,0.1299034,-0.0897735,-0.0802574,-0.0000026,-0.0949664,0.021039
 5,0.,0.000038,0.0000273,0.1023982\Polar=77.9216914,-0.0023656,70.94668
 47,0.0001412,-0.0010637,22.8015518\Quadrupole=3.9492567,-1.3666197,-2.
 582637,-0.001784,-0.0000612,0.0000536\PG=C01 [X(C5H5N1)]\NImag=0\\0.75
 412928,-0.03983220,0.71576544,-0.00000191,-0.00002024,0.15919084,-0.13
 604382,-0.03706444,0.00000118,0.76228612,0.03764461,-0.34510666,0.0000
 0859,0.03011636,0.70370749,-0.00000137,0.00000753,-0.06942547,-0.00000
 707,-0.00001361,0.13022072,0.04513016,0.08344106,-0.00000273,-0.303732
 66,0.06946641,0.00000297,0.69650250,0.03144584,-0.02636721,0.00000031,
 0.13722595,-0.19407742,0.00000044,0.00001698,0.77107816,-0.00000086,0.
 00000128,0.00784722,0.00000109,0.00000042,-0.06248437,-0.00000071,-0.0
 0000876,0.14127416,-0.01854632,-0.02557668,0.00000105,-0.05505473,0.02
 195423,-0.00000061,-0.30386029,-0.13714677,-0.00000020,0.76223232,-0.0
 4262109,-0.06089771,0.00000245,-0.02186951,0.07201006,-0.00000190,-0.0
 6938672,-0.19393634,0.00000088,-0.03016312,0.70376270,0.00000055,0.000
 00063,-0.01088852,0.00000068,-0.00000094,0.00593598,-0.00000185,-0.000
 00057,-0.06248544,0.00000225,-0.00000064,0.13022076,-0.09836745,-0.027
 60273,-0.00000136,-0.01850071,0.04259265,-0.00000125,0.04505327,-0.031
 49338,-0.00000037,-0.13604357,-0.03778401,0.00000244,0.75416933,0.0277
 1096,0.06371775,-0.00000305,0.02554862,-0.06094312,0.00000106,-0.08348
 873,-0.02629043,0.00000002,0.03692474,-0.34512167,-0.00000357,0.039815
 09,0.71572547,-0.00000058,-0.00000327,0.00372119,-0.00000145,0.0000027
 6,-0.01088855,0.00000300,0.00000154,0.00784725,-0.00000021,-0.00000083
 ,-0.06942407,-0.00000175,-0.00002283,0.15919038,-0.29889618,-0.0913639
 2,0.00000749,0.02908763,-0.10280550,0.00000324,-0.08632645,0.00003023,
 0.00000026,0.02917966,0.10276715,-0.00000407,-0.29874199,0.09142788,-0
 .00001376,0.68883312,-0.12198623,-0.19192846,0.00000699,-0.03549732,-0
 .02834667,0.00000302,0.00003020,0.00451605,-0.00000087,0.03545895,-0.0
 2843884,0.00000363,0.12205048,-0.19206713,0.00001117,-0.00008173,0.421
 84621,0.00000738,0.00000772,-0.06848735,0.00000210,0.00000039,0.023874
 54,-0.00000136,-0.00000106,-0.01064080,-0.00000099,0.00000146,0.023874
 09,-0.00001643,0.00001451,-0.06848842,0.00000937,-0.00002168,0.0961800
 4,-0.24333030,0.13120320,-0.00000352,0.00444055,-0.00279001,-0.0000000
 3,0.00124870,-0.00074093,0.00000007,-0.00017383,-0.00022050,-0.0000000
 6,-0.00197820,-0.00251908,0.00000060,-0.03317908,0.00751843,-0.0000007
 1,0.27327520,0.13204557,-0.14920495,0.00000379,0.02739392,-0.01094854,
 0.00000071,-0.00172440,-0.00603420,0.00000042,-0.00104613,-0.00025830,
 0.00000004,-0.00460773,0.00024101,0.00000042,-0.01921935,0.01410018,-0
 .00000080,-0.13352802,0.15152797,-0.00000331,0.00000497,-0.04217684,-0
 .00000067,-0.00000042,0.00658091,-0.00000068,0.00000054,0.00740019,0.0
 0000027,0.00000093,-0.00048105,0.00000075,-0.00000032,0.01086233,-0.00
 000005,-0.00000151,-0.00431459,0.00000376,-0.00000419,0.02709255,0.002
 81288,0.00286333,-0.00000008,-0.28518951,-0.12043375,0.00000452,-0.017
 42207,-0.01529223,0.00000038,-0.00270452,0.00413259,0.00000006,0.00022
 389,0.00106713,0.00000001,0.00190620,0.00005628,0.00000002,0.00041287,
 -0.00039203,0.,0.29969226,-0.03030823,-0.00593090,0.00000023,-0.120293
 09,-0.12405237,0.00000255,0.01620156,0.01220511,-0.00000030,0.00353995
 ,-0.00109904,0.00000008,0.00216672,-0.00129257,0.00000007,-0.00074479,
 -0.00711645,0.00000053,0.00042631,0.00076167,-0.00000010,0.12898180,0.
 12495634,0.00000093,0.00000056,0.00064367,0.00000422,0.00000220,-0.036
 58725,-0.00000021,0.00000011,0.00265669,0.00000013,0.00000015,0.008252
 41,0.00000010,-0.00000004,-0.00034333,-0.00000031,0.00000039,0.0083441
 8,-0.00000001,-0.00000013,-0.00315854,-0.00000482,-0.00000301,0.025905
 58,-0.00513643,0.00247992,0.00000005,0.00558983,0.02816610,-0.00000047
 ,-0.06042058,-0.00009389,0.00000025,0.00557294,-0.02817719,0.00000020,
 -0.00514040,-0.00247588,0.00000015,-0.00059849,0.00000038,0.00000004,0
 .00013188,0.00152046,-0.00000010,0.00110736,-0.00056255,0.,0.05765517,
 0.00345926,0.00100693,0.00000007,-0.00306762,-0.01088972,0.00000031,-0
 .00009410,-0.34726360,0.00000662,0.00305667,-0.01087327,0.00000024,-0.
 00345520,0.00101084,0.00000022,0.00000035,0.00045981,-0.00000003,-0.00
 022559,-0.00069732,0.00000005,0.00004118,0.00087143,-0.00000010,0.0001
 0133,0.36620023,0.00000027,-0.00000004,0.00905649,-0.00000021,0.000000
 04,0.00500231,0.00000086,0.00000761,-0.04147198,-0.00000073,-0.0000008
 6,0.00500228,-0.00000071,0.00000082,0.00905627,0.00000060,-0.00000014,
 -0.00437169,0.00000002,-0.00000011,-0.00040324,-0.00000005,-0.00000005
 ,-0.00415229,-0.00000003,-0.00000721,0.02683725,0.00022175,-0.00106814
 ,0.,-0.00270974,-0.00413154,0.00000008,-0.01742292,0.01531210,-0.00000
 018,-0.28502595,0.12054261,-0.00000058,0.00283136,-0.00286921,-0.00000
 007,0.00190670,-0.00006237,0.00000011,0.00000444,0.00013479,0.00000001
 ,-0.00084351,0.00089053,0.,0.00110770,-0.00004132,0.,0.29951732,-0.002
 16774,-0.00129045,-0.00000004,-0.00353890,-0.00109391,-0.00000014,-0.0
 1618183,0.01220561,-0.00000010,0.12040228,-0.12421561,-0.00000063,0.03
 030216,-0.00594926,0.00000042,0.00073878,-0.00711680,0.00000021,0.0002
 9833,0.00016343,0.00000003,-0.00088960,0.00053306,0.,0.00056231,0.0008
 7113,0.00000008,-0.12909973,0.12513109,-0.00000033,-0.00000024,-0.0003
 4331,-0.00000008,0.00000023,0.00825221,0.00000007,0.00000014,0.0026567
 0,-0.00000054,-0.00000003,-0.03658735,0.00000037,-0.00000018,0.0006436
 6,0.00000011,0.00000041,0.00834436,0.,-0.00000007,-0.00192897,-0.00000
 002,0.00000003,0.00036785,-0.00000002,-0.00000015,-0.00415217,0.000000
 65,0.00000008,0.02590566,-0.00197357,0.00252061,-0.00000018,-0.0001729
 5,0.00022044,0.,0.00125035,0.00073611,0.00000025,0.00442429,0.00277979
 ,0.00000038,-0.24350554,-0.13114152,0.00001406,-0.03317111,-0.00748708
 ,0.00000047,-0.00085224,-0.00057708,0.00000002,0.00000415,-0.00029821,
 -0.00000001,0.00013102,0.00022504,0.,0.00041285,-0.00042606,-0.0000002
 0,0.27345275,0.00460925,0.00023622,0.00000089,0.00104603,-0.00025915,0
 .00000003,0.00171957,-0.00603574,0.00000038,-0.02740413,-0.01093196,0.
 00000173,-0.13198406,-0.14903089,0.00001031,0.01925090,0.01409210,-0.0
 0000126,0.00057788,0.00034905,0.00000001,-0.00013469,0.00016372,-0.000
 00013,-0.00152100,-0.00069646,-0.00000014,0.00039229,0.00076170,-0.000
 00022,0.13344797,0.15135141,-0.00000077,0.00000111,0.01086208,0.000000
 21,0.00000034,-0.00048105,0.00000066,-0.00000030,0.00740037,-0.0000004
 2,-0.00000159,0.00658089,0.00001822,0.00001358,-0.04217673,-0.00000287
 ,-0.00000141,-0.00431437,-0.00000013,-0.00000009,0.00052724,-0.0000000
 3,-0.00000005,-0.00192896,-0.00000005,-0.00000004,-0.00040323,-0.00000
 003,0.00000007,-0.00315865,-0.00001478,-0.00001161,0.02709242\\-0.0001
 2650,-0.00030039,0.00000217,-0.00005578,0.00014864,0.00000013,-0.00000
 263,-0.00008430,-0.00000276,0.00005798,0.00015365,-0.00000404,0.000129
 42,-0.00030526,0.00001694,-0.00000219,0.00022310,-0.00000964,-0.000009
 90,0.00007885,0.00000093,0.00003365,-0.00000340,-0.00000018,0.00000052
 ,0.00001401,0.00000142,-0.00003403,-0.00000414,-0.00000081,0.00000945,
 0.00007921,-0.00000416\\\@
 The archive entry for this job was punched.


 THE ATTENTION SPAN OF A COMPUTER IS AS LONG
 AS ITS EXTENSION CORD.
 Job cpu time:       0 days  0 hours  5 minutes 31.4 seconds.
 Elapsed time:       0 days  0 hours  1 minutes 23.6 seconds.
 File lengths (MBytes):  RWF=    110 Int=      0 D2E=      0 Chk=      7 Scr=      2
 Normal termination of Gaussian 16 at Wed Jun 15 23:24:49 2022.
