 Entering Gaussian System, Link 0=g16
 Input=/gpfs1/home/osl/test/Naphthalene/Gaussian 16 Single Point (Singlet) PBE1PBE (GD3BJ) Toluene 6-31G(d,p)/Input/Naphthalene.com
 Output=/gpfs1/home/osl/test/Naphthalene/Gaussian 16 Single Point (Singlet) PBE1PBE (GD3BJ) Toluene 6-31G(d,p)/Output/Naphthalene.log
 Initial command:
 /gpfs1/apps/software/Gaussian16/AVX/g16/l1.exe "/scratch/tmp/osl/fd06ce56e21a4fa58b98aa919d433b1f/Gau-362.inp" -scrdir="/scratch/tmp/osl/fd06ce56e21a4fa58b98aa919d433b1f/"
 Entering Link 1 = /gpfs1/apps/software/Gaussian16/AVX/g16/l1.exe PID=       397.
  
 Copyright (c) 1988-2019, Gaussian, Inc.  All Rights Reserved.
  
 This is part of the Gaussian(R) 16 program.  It is based on
 the Gaussian(R) 09 system (copyright 2009, Gaussian, Inc.),
 the Gaussian(R) 03 system (copyright 2003, Gaussian, Inc.),
 the Gaussian(R) 98 system (copyright 1998, Gaussian, Inc.),
 the Gaussian(R) 94 system (copyright 1995, Gaussian, Inc.),
 the Gaussian 92(TM) system (copyright 1992, Gaussian, Inc.),
 the Gaussian 90(TM) system (copyright 1990, Gaussian, Inc.),
 the Gaussian 88(TM) system (copyright 1988, Gaussian, Inc.),
 the Gaussian 86(TM) system (copyright 1986, Carnegie Mellon
 University), and the Gaussian 82(TM) system (copyright 1983,
 Carnegie Mellon University). Gaussian is a federally registered
 trademark of Gaussian, Inc.
  
 This software contains proprietary and confidential information,
 including trade secrets, belonging to Gaussian, Inc.
  
 This software is provided under written license and may be
 used, copied, transmitted, or stored only in accord with that
 written license.
  
 The following legend is applicable only to US Government
 contracts under FAR:
  
                    RESTRICTED RIGHTS LEGEND
  
 Use, reproduction and disclosure by the US Government is
 subject to restrictions as set forth in subparagraphs (a)
 and (c) of the Commercial Computer Software - Restricted
 Rights clause in FAR 52.227-19.
  
 Gaussian, Inc.
 340 Quinnipiac St., Bldg. 40, Wallingford CT 06492
  
  
 ---------------------------------------------------------------
 Warning -- This program may not be used in any manner that
 competes with the business of Gaussian, Inc. or will provide
 assistance to any competitor of Gaussian, Inc.  The licensee
 of this program is prohibited from giving any competitor of
 Gaussian, Inc. access to this program.  By using this program,
 the user acknowledges that Gaussian, Inc. is engaged in the
 business of creating and licensing software in the field of
 computational chemistry and represents and warrants to the
 licensee that it is not a competitor of Gaussian, Inc. and that
 it will not use this program in any manner prohibited above.
 ---------------------------------------------------------------
  

 Cite this work as:
 Gaussian 16, Revision C.01,
 M. J. Frisch, G. W. Trucks, H. B. Schlegel, G. E. Scuseria, 
 M. A. Robb, J. R. Cheeseman, G. Scalmani, V. Barone, 
 G. A. Petersson, H. Nakatsuji, X. Li, M. Caricato, A. V. Marenich, 
 J. Bloino, B. G. Janesko, R. Gomperts, B. Mennucci, H. P. Hratchian, 
 J. V. Ortiz, A. F. Izmaylov, J. L. Sonnenberg, D. Williams-Young, 
 F. Ding, F. Lipparini, F. Egidi, J. Goings, B. Peng, A. Petrone, 
 T. Henderson, D. Ranasinghe, V. G. Zakrzewski, J. Gao, N. Rega, 
 G. Zheng, W. Liang, M. Hada, M. Ehara, K. Toyota, R. Fukuda, 
 J. Hasegawa, M. Ishida, T. Nakajima, Y. Honda, O. Kitao, H. Nakai, 
 T. Vreven, K. Throssell, J. A. Montgomery, Jr., J. E. Peralta, 
 F. Ogliaro, M. J. Bearpark, J. J. Heyd, E. N. Brothers, K. N. Kudin, 
 V. N. Staroverov, T. A. Keith, R. Kobayashi, J. Normand, 
 K. Raghavachari, A. P. Rendell, J. C. Burant, S. S. Iyengar, 
 J. Tomasi, M. Cossi, J. M. Millam, M. Klene, C. Adamo, R. Cammi, 
 J. W. Ochterski, R. L. Martin, K. Morokuma, O. Farkas, 
 J. B. Foresman, and D. J. Fox, Gaussian, Inc., Wallingford CT, 2019.
 
 ******************************************
 Gaussian 16:  ES64L-G16RevC.01  3-Jul-2019
                21-Jun-2022 
 ******************************************
 %Chk="Naphthalene.chk"
 %Rwf="Naphthalene.rwf"
 %NProcShared=8
 Will use up to    8 processors via shared memory.
 %Mem=20GB
 ----------------------------------------------------------------------
 #p PBE1PBE/6-31G(d,p) SCRF=(Solvent=Toluene) EmpiricalDispersion=(GD3B
 J) Symmetry=(Tight) Population=(Regular) Density=(Current)
 ----------------------------------------------------------------------
 1/30=1,38=1,172=1/1;
 2/12=2,40=1/2;
 3/5=1,6=6,7=101,11=2,25=1,30=1,70=2201,72=13,74=-13,124=41/1,2,3;
 4//1;
 5/5=2,38=5,53=13/2;
 6/22=-1,28=1/1;
 99/5=1,9=1/99;
 Leave Link    1 at Tue Jun 21 17:25:27 2022, MaxMem=  2684354560 cpu:               0.7 elap:               0.1
 (Enter /gpfs1/apps/software/Gaussian16/AVX/g16/l101.exe)
 ---------------------------------------------------------------------
 Naphthalene_Single_Point__Singlet__PBE1PBE__GD3BJ__Toluene_6_31G_d_p_
 ---------------------------------------------------------------------
 Symbolic Z-matrix:
 Charge =  0 Multiplicity = 1
 C                    -1.24046  -1.39914   0. 
 C                    -2.426    -0.70664   0. 
 C                    -2.426     0.70664   0. 
 C                    -1.24046   1.39914   0. 
 C                     0.        0.71423   0. 
 C                     0.       -0.71423   0. 
 C                     1.24046  -1.39914   0. 
 C                     1.24046   1.39914   0. 
 C                     2.426     0.70664   0. 
 C                     2.426    -0.70664   0. 
 H                    -1.2367   -2.4862    0. 
 H                    -3.3697   -1.24397   0. 
 H                    -3.3697    1.24397   0. 
 H                    -1.2367    2.4862    0. 
 H                     1.2367   -2.4862    0. 
 H                     1.2367    2.4862    0. 
 H                     3.3697    1.24397   0. 
 H                     3.3697   -1.24397   0. 
 
 ITRead=  0  0  0  0  0  0  0  0  0  0  0  0  0  0  0  0  0  0
 MicOpt= -1 -1 -1 -1 -1 -1 -1 -1 -1 -1 -1 -1 -1 -1 -1 -1 -1 -1
 NAtoms=     18 NQM=       18 NQMF=       0 NMMI=      0 NMMIF=      0
                NMic=       0 NMicF=      0.
                    Isotopes and Nuclear Properties:
 (Nuclear quadrupole moments (NQMom) in fm**2, nuclear magnetic moments (NMagM)
  in nuclear magnetons)

  Atom         1           2           3           4           5           6           7           8           9          10
 IAtWgt=          12          12          12          12          12          12          12          12          12          12
 AtmWgt=  12.0000000  12.0000000  12.0000000  12.0000000  12.0000000  12.0000000  12.0000000  12.0000000  12.0000000  12.0000000
 NucSpn=           0           0           0           0           0           0           0           0           0           0
 AtZEff=  -0.0000000  -0.0000000  -0.0000000  -0.0000000  -0.0000000  -0.0000000  -0.0000000  -0.0000000  -0.0000000  -0.0000000
 NQMom=    0.0000000   0.0000000   0.0000000   0.0000000   0.0000000   0.0000000   0.0000000   0.0000000   0.0000000   0.0000000
 NMagM=    0.0000000   0.0000000   0.0000000   0.0000000   0.0000000   0.0000000   0.0000000   0.0000000   0.0000000   0.0000000
 AtZNuc=   6.0000000   6.0000000   6.0000000   6.0000000   6.0000000   6.0000000   6.0000000   6.0000000   6.0000000   6.0000000

  Atom        11          12          13          14          15          16          17          18
 IAtWgt=           1           1           1           1           1           1           1           1
 AtmWgt=   1.0078250   1.0078250   1.0078250   1.0078250   1.0078250   1.0078250   1.0078250   1.0078250
 NucSpn=           1           1           1           1           1           1           1           1
 AtZEff=  -0.0000000  -0.0000000  -0.0000000  -0.0000000  -0.0000000  -0.0000000  -0.0000000  -0.0000000
 NQMom=    0.0000000   0.0000000   0.0000000   0.0000000   0.0000000   0.0000000   0.0000000   0.0000000
 NMagM=    2.7928460   2.7928460   2.7928460   2.7928460   2.7928460   2.7928460   2.7928460   2.7928460
 AtZNuc=   1.0000000   1.0000000   1.0000000   1.0000000   1.0000000   1.0000000   1.0000000   1.0000000
 Leave Link  101 at Tue Jun 21 17:25:30 2022, MaxMem=  2684354560 cpu:               2.2 elap:               0.4
 (Enter /gpfs1/apps/software/Gaussian16/AVX/g16/l202.exe)
                          Input orientation:                          
 ---------------------------------------------------------------------
 Center     Atomic      Atomic             Coordinates (Angstroms)
 Number     Number       Type             X           Y           Z
 ---------------------------------------------------------------------
      1          6           0       -1.240460   -1.399140    0.000000
      2          6           0       -2.426000   -0.706640    0.000000
      3          6           0       -2.426000    0.706640    0.000000
      4          6           0       -1.240460    1.399140    0.000000
      5          6           0        0.000000    0.714230    0.000000
      6          6           0        0.000000   -0.714230    0.000000
      7          6           0        1.240460   -1.399140    0.000000
      8          6           0        1.240460    1.399140    0.000000
      9          6           0        2.426000    0.706640    0.000000
     10          6           0        2.426000   -0.706640    0.000000
     11          1           0       -1.236700   -2.486200    0.000000
     12          1           0       -3.369700   -1.243970    0.000000
     13          1           0       -3.369700    1.243970    0.000000
     14          1           0       -1.236700    2.486200    0.000000
     15          1           0        1.236700   -2.486200    0.000000
     16          1           0        1.236700    2.486200    0.000000
     17          1           0        3.369700    1.243970    0.000000
     18          1           0        3.369700   -1.243970    0.000000
 ---------------------------------------------------------------------
                    Distance matrix (angstroms):
                    1          2          3          4          5
     1  C    0.000000
     2  C    1.372975   0.000000
     3  C    2.416571   1.413280   0.000000
     4  C    2.798280   2.416571   1.372975   0.000000
     5  C    2.450525   2.811467   2.426012   1.416984   0.000000
     6  C    1.416984   2.426012   2.811467   2.450525   1.428460
     7  C    2.480920   3.731285   4.228148   3.739697   2.450525
     8  C    3.739697   4.228148   3.731285   2.480920   1.416984
     9  C    4.228148   5.053639   4.852000   3.731285   2.426012
    10  C    3.731285   4.852000   5.053639   4.228148   2.811467
    11  H    1.087067   2.140390   3.407149   3.885342   3.431061
    12  H    2.134887   1.085953   2.166898   3.394067   3.897361
    13  H    3.394067   2.166898   1.085953   2.134887   3.411085
    14  H    3.885342   3.407149   2.140390   1.087067   2.160857
    15  H    2.705184   4.072125   4.858971   4.607840   3.431061
    16  H    4.607840   4.858971   4.072125   2.705184   2.160857
    17  H    5.314095   6.115147   5.820555   4.612771   3.411085
    18  H    4.612771   5.820555   6.115147   5.314095   3.897361
                    6          7          8          9         10
     6  C    0.000000
     7  C    1.416984   0.000000
     8  C    2.450525   2.798280   0.000000
     9  C    2.811467   2.416571   1.372975   0.000000
    10  C    2.426012   1.372975   2.416571   1.413280   0.000000
    11  H    2.160857   2.705184   4.607840   4.858971   4.072125
    12  H    3.411085   4.612771   5.314095   6.115147   5.820555
    13  H    3.897361   5.314095   4.612771   5.820555   6.115147
    14  H    3.431061   4.607840   2.705184   4.072125   4.858971
    15  H    2.160857   1.087067   3.885342   3.407149   2.140390
    16  H    3.431061   3.885342   1.087067   2.140390   3.407149
    17  H    3.897361   3.394067   2.134887   1.085953   2.166898
    18  H    3.411085   2.134887   3.394067   2.166898   1.085953
                   11         12         13         14         15
    11  H    0.000000
    12  H    2.468365   0.000000
    13  H    4.296959   2.487940   0.000000
    14  H    4.972400   4.296959   2.468365   0.000000
    15  H    2.473400   4.770960   5.927317   5.553600   0.000000
    16  H    5.553600   5.927317   4.770960   2.473400   4.972400
    17  H    5.927317   7.183965   6.739400   4.770960   4.296959
    18  H    4.770960   6.739400   7.183965   5.927317   2.468365
                   16         17         18
    16  H    0.000000
    17  H    2.468365   0.000000
    18  H    4.296959   2.487940   0.000000
 Stoichiometry    C10H8
 Framework group  D2H[C2"(C.C),SG(C8H8)]
 Deg. of freedom     9
 Full point group                 D2H     NOp   8
 Largest Abelian subgroup         D2H     NOp   8
 Largest concise Abelian subgroup D2      NOp   4
                         Standard orientation:                         
 ---------------------------------------------------------------------
 Center     Atomic      Atomic             Coordinates (Angstroms)
 Number     Number       Type             X           Y           Z
 ---------------------------------------------------------------------
      1          6           0        0.000000    1.240460    1.399140
      2          6           0        0.000000    2.426000    0.706640
      3          6           0        0.000000    2.426000   -0.706640
      4          6           0        0.000000    1.240460   -1.399140
      5          6           0       -0.000000    0.000000   -0.714230
      6          6           0       -0.000000    0.000000    0.714230
      7          6           0       -0.000000   -1.240460    1.399140
      8          6           0       -0.000000   -1.240460   -1.399140
      9          6           0       -0.000000   -2.426000   -0.706640
     10          6           0       -0.000000   -2.426000    0.706640
     11          1           0        0.000000    1.236700    2.486200
     12          1           0        0.000000    3.369700    1.243970
     13          1           0        0.000000    3.369700   -1.243970
     14          1           0        0.000000    1.236700   -2.486200
     15          1           0       -0.000000   -1.236700    2.486200
     16          1           0       -0.000000   -1.236700   -2.486200
     17          1           0       -0.000000   -3.369700   -1.243970
     18          1           0       -0.000000   -3.369700    1.243970
 ---------------------------------------------------------------------
 Rotational constants (GHZ):           3.1325350           1.2377551           0.8871977
 Leave Link  202 at Tue Jun 21 17:25:31 2022, MaxMem=  2684354560 cpu:               0.0 elap:               0.0
 (Enter /gpfs1/apps/software/Gaussian16/AVX/g16/l301.exe)
 Standard basis: 6-31G(d,p) (6D, 7F)
 Ernie: Thresh=  0.10000D-02 Tol=  0.10000D-05 Strict=F.
 There are    38 symmetry adapted cartesian basis functions of AG  symmetry.
 There are    11 symmetry adapted cartesian basis functions of B1G symmetry.
 There are    13 symmetry adapted cartesian basis functions of B2G symmetry.
 There are    33 symmetry adapted cartesian basis functions of B3G symmetry.
 There are    11 symmetry adapted cartesian basis functions of AU  symmetry.
 There are    38 symmetry adapted cartesian basis functions of B1U symmetry.
 There are    33 symmetry adapted cartesian basis functions of B2U symmetry.
 There are    13 symmetry adapted cartesian basis functions of B3U symmetry.
 There are    38 symmetry adapted basis functions of AG  symmetry.
 There are    11 symmetry adapted basis functions of B1G symmetry.
 There are    13 symmetry adapted basis functions of B2G symmetry.
 There are    33 symmetry adapted basis functions of B3G symmetry.
 There are    11 symmetry adapted basis functions of AU  symmetry.
 There are    38 symmetry adapted basis functions of B1U symmetry.
 There are    33 symmetry adapted basis functions of B2U symmetry.
 There are    13 symmetry adapted basis functions of B3U symmetry.
   190 basis functions,   336 primitive gaussians,   190 cartesian basis functions
    34 alpha electrons       34 beta electrons
       nuclear repulsion energy       458.4330499695 Hartrees.
 IExCor= 1009 DFT=T Ex+Corr=PBE1PBE ExCW=0 ScaHFX=  0.250000
 ScaDFX=  0.750000  0.750000  1.000000  1.000000 ScalE2=  1.000000  1.000000
 IRadAn=      5 IRanWt=     -1 IRanGd=            0 ICorTp=0 IEmpDi=141
 NAtoms=   18 NActive=   18 NUniq=    5 SFac= 4.00D+00 NAtFMM=   60 NAOKFM=F Big=F
 Integral buffers will be    131072 words long.
 Raffenetti 2 integral format.
 Two-electron integral symmetry is turned on.
 R6Disp:  Grimme-D3(BJ) Dispersion energy=       -0.0185226351 Hartrees.
 Nuclear repulsion after empirical dispersion term =      458.4145273344 Hartrees.
 ------------------------------------------------------------------------------
 Polarizable Continuum Model (PCM)
 =================================
 Model                : PCM.
 Atomic radii         : UFF (Universal Force Field).
 Polarization charges : Total charges.
 Charge compensation  : None.
 Solution method      : On-the-fly selection.
 Cavity type          : Scaled VdW (van der Waals Surface) (Alpha=1.100).
 Cavity algorithm     : GePol (No added spheres)
                        Default sphere list used, NSphG=   18.
                        Lebedev-Laikov grids with approx.  5.0 points / Ang**2.
                        Smoothing algorithm: York/Karplus (Gamma=1.0000).
                        Polarization charges: spherical gaussians, with
                                              point-specific exponents (IZeta= 3).
                        Self-potential: point-specific (ISelfS= 7).
                        Self-field    : sphere-specific E.n sum rule (ISelfD= 2).
 Solvent              : Toluene, Eps=   2.374100 Eps(inf)=   2.238315
 ------------------------------------------------------------------------------
 Spheres list:
 ISph  on   Nord     Re0    Alpha      Xe            Ye            Ze
    1   C      1    1.9255  1.100      0.000000      1.240460      1.399140
    2   C      2    1.9255  1.100      0.000000      2.426000      0.706640
    3   C      3    1.9255  1.100      0.000000      2.426000     -0.706640
    4   C      4    1.9255  1.100      0.000000      1.240460     -1.399140
    5   C      5    1.9255  1.100     -0.000000      0.000000     -0.714230
    6   C      6    1.9255  1.100     -0.000000      0.000000      0.714230
    7   C      7    1.9255  1.100     -0.000000     -1.240460      1.399140
    8   C      8    1.9255  1.100     -0.000000     -1.240460     -1.399140
    9   C      9    1.9255  1.100     -0.000000     -2.426000     -0.706640
   10   C     10    1.9255  1.100     -0.000000     -2.426000      0.706640
   11   H     11    1.4430  1.100      0.000000      1.236700      2.486200
   12   H     12    1.4430  1.100      0.000000      3.369700      1.243970
   13   H     13    1.4430  1.100      0.000000      3.369700     -1.243970
   14   H     14    1.4430  1.100      0.000000      1.236700     -2.486200
   15   H     15    1.4430  1.100     -0.000000     -1.236700      2.486200
   16   H     16    1.4430  1.100     -0.000000     -1.236700     -2.486200
   17   H     17    1.4430  1.100     -0.000000     -3.369700     -1.243970
   18   H     18    1.4430  1.100     -0.000000     -3.369700      1.243970
 ------------------------------------------------------------------------------
 GePol: Number of generator spheres                  =      18
 GePol: Total number of spheres                      =      18
 GePol: Number of exposed spheres                    =      18 (100.00%)
 GePol: Number of points                             =    1468
 GePol: Average weight of points                     =       0.13
 GePol: Minimum weight of points                     =   0.28D-07
 GePol: Maximum weight of points                     =    0.20577
 GePol: Number of points with low weight             =      84
 GePol: Fraction of low-weight points (<1% of avg)   =       5.72%
 GePol: Cavity surface area                          =    195.522 Ang**2
 GePol: Cavity volume                                =    198.173 Ang**3
 Leave Link  301 at Tue Jun 21 17:25:32 2022, MaxMem=  2684354560 cpu:               0.5 elap:               0.1
 (Enter /gpfs1/apps/software/Gaussian16/AVX/g16/l302.exe)
 NPDir=0 NMtPBC=     1 NCelOv=     1 NCel=       1 NClECP=     1 NCelD=      1
         NCelK=      1 NCelE2=     1 NClLst=     1 CellRange=     0.0.
 One-electron integrals computed using PRISM.
 One-electron integral symmetry used in STVInt
 NBasis=   190 RedAO= T EigKep=  2.99D-04  NBF=    38    11    13    33    11    38    33    13
 NBsUse=   190 1.00D-06 EigRej= -1.00D+00 NBFU=    38    11    13    33    11    38    33    13
 Precomputing XC quadrature grid using
 IXCGrd= 4 IRadAn=           5 IRanWt=          -1 IRanGd=           0 AccXCQ= 0.00D+00.
 Generated NRdTot=       0 NPtTot=           0 NUsed=           0 NTot=          32
 NSgBfM=   190   190   190   190   190 MxSgAt=    18 MxSgA2=    18.
 Leave Link  302 at Tue Jun 21 17:25:33 2022, MaxMem=  2684354560 cpu:               2.5 elap:               0.3
 (Enter /gpfs1/apps/software/Gaussian16/AVX/g16/l303.exe)
 DipDrv:  MaxL=1.
 Leave Link  303 at Tue Jun 21 17:25:34 2022, MaxMem=  2684354560 cpu:               0.3 elap:               0.0
 (Enter /gpfs1/apps/software/Gaussian16/AVX/g16/l401.exe)
 ExpMin= 1.61D-01 ExpMax= 3.05D+03 ExpMxC= 4.57D+02 IAcc=3 IRadAn=         5 AccDes= 0.00D+00
 Harris functional with IExCor= 1009 and IRadAn=       5 diagonalized for initial guess.
 HarFok:  IExCor= 1009 AccDes= 0.00D+00 IRadAn=         5 IDoV= 1 UseB2=F ITyADJ=14
 ICtDFT=  3500011 ScaDFX=  1.000000  1.000000  1.000000  1.000000
 FoFCou: FMM=F IPFlag=           0 FMFlag=      100000 FMFlg1=           0
         NFxFlg=           0 DoJE=T BraDBF=F KetDBF=T FulRan=T
         wScrn=  0.000000 ICntrl=       500 IOpCl=  0 I1Cent=   200000004 NGrid=           0
         NMat0=    1 NMatS0=      1 NMatT0=    0 NMatD0=    1 NMtDS0=    0 NMtDT0=    0
 Petite list used in FoFCou.
 Harris En= -385.596418221819    
 JPrj=0 DoOrth=F DoCkMO=F.
 Initial guess orbital symmetries:
       Occupied  (AG) (B2U) (B1U) (B3G) (AG) (B2U) (B1U) (B3G)
                 (AG) (B1U) (AG) (B2U) (B1U) (AG) (B3G) (B2U) (B1U)
                 (AG) (B2U) (B3G) (AG) (AG) (B2U) (B1U) (B3G) (B1U)
                 (B3U) (B2U) (B3G) (AG) (B1G) (B2G) (B3U) (AU)
       Virtual   (B1G) (B2G) (B3U) (AU) (AG) (B2U) (B1U) (B2G)
                 (B1U) (B2U) (AG) (B3G) (B1U) (B3G) (AG) (B1U)
                 (B3G) (B2U) (AG) (B2U) (AG) (B1U) (B3G) (B1U)
                 (B2U) (B3U) (B1G) (AG) (B3G) (B2U) (B2G) (B1U)
                 (B3G) (AG) (B2U) (B3U) (B1U) (AG) (AU) (B2G) (B3U)
                 (B1G) (AU) (B1U) (B3G) (AG) (B1U) (B2U) (B2G)
                 (B3G) (AG) (B2U) (B1U) (AG) (B3G) (B2U) (B3G)
                 (B2U) (B1U) (AG) (B1U) (B3G) (B2U) (B3G) (B3U)
                 (B1G) (B1U) (B1G) (AG) (AU) (B3U) (B1G) (B2G)
                 (AU) (B3U) (AG) (B2U) (B3G) (B1U) (AG) (B2U) (AG)
                 (B2G) (AG) (B2U) (B3G) (B3U) (B1U) (B2U) (B1U)
                 (B3G) (AG) (B1U) (B2G) (AU) (B2U) (B1G) (B3G)
                 (AG) (B1U) (AU) (B2G) (B3U) (B3G) (B1G) (B2U)
                 (AG) (B3U) (B3G) (B1G) (B2U) (B2G) (B1U) (AG)
                 (AU) (B1U) (B2U) (B3U) (B3G) (AU) (AG) (B1G) (B1U)
                 (B2G) (B3G) (B2U) (B1U) (B2G) (AU) (AG) (B3G)
                 (B2U) (B1U) (AG) (B3G) (B1U) (AG) (B2U) (B3G)
                 (B1U) (B3G) (B1U) (B2U) (AG) (B1U) (B3G) (AG)
                 (B2U) (B1U) (AG) (B3G) (B2U) (B1U) (AG) (B3G)
                 (B1U)
 The electronic state of the initial guess is 1-AG.
 Leave Link  401 at Tue Jun 21 17:25:36 2022, MaxMem=  2684354560 cpu:               9.7 elap:               1.4
 (Enter /gpfs1/apps/software/Gaussian16/AVX/g16/l502.exe)
 Keep R1 ints in memory in symmetry-blocked form, NReq=186542383.
 FoFCou: FMM=F IPFlag=           0 FMFlag=           0 FMFlg1=           0
         NFxFlg=           0 DoJE=F BraDBF=F KetDBF=F FulRan=T
         wScrn=  0.000000 ICntrl=       600 IOpCl=  0 I1Cent=           0 NGrid=           0
         NMat0=    1 NMatS0=  18145 NMatT0=    0 NMatD0=    1 NMtDS0=    0 NMtDT0=    0
 Petite list used in FoFCou.
 Closed shell SCF:
 Using DIIS extrapolation, IDIIS=  1040.
 NGot=  2684354560 LenX=  2662367341 LenY=  2662330800
 Requested convergence on RMS density matrix=1.00D-08 within 128 cycles.
 Requested convergence on MAX density matrix=1.00D-06.
 Requested convergence on             energy=1.00D-06.
 No special actions if energy rises.

 Cycle   1  Pass 1  IDiag  1:
 Inv3:  Mode=1 IEnd=     6465072.
 Iteration    1 A*A^-1 deviation from unit magnitude is 5.55D-15 for   1450.
 Iteration    1 A*A^-1 deviation from orthogonality  is 3.43D-15 for   1443   1339.
 Iteration    1 A^-1*A deviation from unit magnitude is 5.55D-15 for   1450.
 Iteration    1 A^-1*A deviation from orthogonality  is 1.83D-15 for    864    492.
 E= -385.268461539704    
 DIIS: error= 4.44D-02 at cycle   1 NSaved=   1.
 NSaved= 1 IEnMin= 1 EnMin= -385.268461539704     IErMin= 1 ErrMin= 4.44D-02
 ErrMax= 4.44D-02  0.00D+00 EMaxC= 1.00D-01 BMatC= 1.79D-01 BMatP= 1.79D-01
 IDIUse=3 WtCom= 5.56D-01 WtEn= 4.44D-01
 Coeff-Com:  0.100D+01
 Coeff-En:   0.100D+01
 Coeff:      0.100D+01
 Gap=     0.191 Goal=   None    Shift=    0.000
 GapD=    0.191 DampG=1.000 DampE=0.500 DampFc=0.5000 IDamp=-1.
 Damping current iteration by 5.00D-01
 RMSDP=4.96D-03 MaxDP=8.06D-02              OVMax= 1.31D-01

 Cycle   2  Pass 1  IDiag  1:
 E= -385.369210879447     Delta-E=       -0.100749339744 Rises=F Damp=T
 DIIS: error= 1.03D-02 at cycle   2 NSaved=   2.
 NSaved= 2 IEnMin= 2 EnMin= -385.369210879447     IErMin= 2 ErrMin= 1.03D-02
 ErrMax= 1.03D-02  0.00D+00 EMaxC= 1.00D-01 BMatC= 1.21D-02 BMatP= 1.79D-01
 IDIUse=3 WtCom= 8.97D-01 WtEn= 1.03D-01
 Coeff-Com: -0.117D+00 0.112D+01
 Coeff-En:   0.000D+00 0.100D+01
 Coeff:     -0.105D+00 0.110D+01
 Gap=     0.192 Goal=   None    Shift=    0.000
 RMSDP=1.53D-03 MaxDP=2.84D-02 DE=-1.01D-01 OVMax= 6.85D-02

 Cycle   3  Pass 1  IDiag  1:
 E= -385.462087614322     Delta-E=       -0.092876734874 Rises=F Damp=F
 DIIS: error= 3.21D-03 at cycle   3 NSaved=   3.
 NSaved= 3 IEnMin= 3 EnMin= -385.462087614322     IErMin= 3 ErrMin= 3.21D-03
 ErrMax= 3.21D-03  0.00D+00 EMaxC= 1.00D-01 BMatC= 1.27D-03 BMatP= 1.21D-02
 IDIUse=3 WtCom= 9.68D-01 WtEn= 3.21D-02
 Coeff-Com: -0.629D-01 0.239D+00 0.823D+00
 Coeff-En:   0.000D+00 0.000D+00 0.100D+01
 Coeff:     -0.609D-01 0.232D+00 0.829D+00
 Gap=     0.191 Goal=   None    Shift=    0.000
 RMSDP=3.62D-04 MaxDP=6.91D-03 DE=-9.29D-02 OVMax= 8.68D-03

 Cycle   4  Pass 1  IDiag  1:
 E= -385.463005434614     Delta-E=       -0.000917820292 Rises=F Damp=F
 DIIS: error= 1.65D-03 at cycle   4 NSaved=   4.
 NSaved= 4 IEnMin= 4 EnMin= -385.463005434614     IErMin= 4 ErrMin= 1.65D-03
 ErrMax= 1.65D-03  0.00D+00 EMaxC= 1.00D-01 BMatC= 3.19D-04 BMatP= 1.27D-03
 IDIUse=3 WtCom= 9.83D-01 WtEn= 1.65D-02
 Coeff-Com: -0.245D-01 0.692D-01 0.383D+00 0.572D+00
 Coeff-En:   0.000D+00 0.000D+00 0.100D+00 0.900D+00
 Coeff:     -0.241D-01 0.681D-01 0.379D+00 0.577D+00
 Gap=     0.191 Goal=   None    Shift=    0.000
 RMSDP=1.14D-04 MaxDP=2.69D-03 DE=-9.18D-04 OVMax= 5.02D-03

 Cycle   5  Pass 1  IDiag  1:
 E= -385.463277855172     Delta-E=       -0.000272420558 Rises=F Damp=F
 DIIS: error= 3.91D-04 at cycle   5 NSaved=   5.
 NSaved= 5 IEnMin= 5 EnMin= -385.463277855172     IErMin= 5 ErrMin= 3.91D-04
 ErrMax= 3.91D-04  0.00D+00 EMaxC= 1.00D-01 BMatC= 2.59D-05 BMatP= 3.19D-04
 IDIUse=3 WtCom= 9.96D-01 WtEn= 3.91D-03
 Coeff-Com: -0.621D-02 0.127D-01 0.107D+00 0.277D+00 0.609D+00
 Coeff-En:   0.000D+00 0.000D+00 0.000D+00 0.000D+00 0.100D+01
 Coeff:     -0.619D-02 0.126D-01 0.107D+00 0.276D+00 0.611D+00
 Gap=     0.191 Goal=   None    Shift=    0.000
 RMSDP=2.37D-05 MaxDP=6.23D-04 DE=-2.72D-04 OVMax= 1.19D-03

 Cycle   6  Pass 1  IDiag  1:
 E= -385.463301897839     Delta-E=       -0.000024042667 Rises=F Damp=F
 DIIS: error= 3.28D-05 at cycle   6 NSaved=   6.
 NSaved= 6 IEnMin= 6 EnMin= -385.463301897839     IErMin= 6 ErrMin= 3.28D-05
 ErrMax= 3.28D-05  0.00D+00 EMaxC= 1.00D-01 BMatC= 9.96D-08 BMatP= 2.59D-05
 IDIUse=1 WtCom= 1.00D+00 WtEn= 0.00D+00
 Coeff-Com: -0.144D-02 0.264D-02 0.246D-01 0.680D-01 0.165D+00 0.741D+00
 Coeff:     -0.144D-02 0.264D-02 0.246D-01 0.680D-01 0.165D+00 0.741D+00
 Gap=     0.191 Goal=   None    Shift=    0.000
 RMSDP=3.07D-06 MaxDP=6.74D-05 DE=-2.40D-05 OVMax= 2.00D-04

 Cycle   7  Pass 1  IDiag  1:
 E= -385.463301914174     Delta-E=       -0.000000016335 Rises=F Damp=F
 DIIS: error= 3.06D-05 at cycle   7 NSaved=   7.
 NSaved= 7 IEnMin= 7 EnMin= -385.463301914174     IErMin= 7 ErrMin= 3.06D-05
 ErrMax= 3.06D-05  0.00D+00 EMaxC= 1.00D-01 BMatC= 8.17D-08 BMatP= 9.96D-08
 IDIUse=1 WtCom= 1.00D+00 WtEn= 0.00D+00
 Coeff-Com: -0.977D-04 0.222D-04 0.122D-02 0.622D-02 0.237D-01 0.484D+00
 Coeff-Com:  0.485D+00
 Coeff:     -0.977D-04 0.222D-04 0.122D-02 0.622D-02 0.237D-01 0.484D+00
 Coeff:      0.485D+00
 Gap=     0.191 Goal=   None    Shift=    0.000
 RMSDP=1.81D-06 MaxDP=3.84D-05 DE=-1.63D-08 OVMax= 1.13D-04

 Cycle   8  Pass 1  IDiag  1:
 E= -385.463302003763     Delta-E=       -0.000000089589 Rises=F Damp=F
 DIIS: error= 4.97D-06 at cycle   8 NSaved=   8.
 NSaved= 8 IEnMin= 8 EnMin= -385.463302003763     IErMin= 8 ErrMin= 4.97D-06
 ErrMax= 4.97D-06  0.00D+00 EMaxC= 1.00D-01 BMatC= 8.26D-10 BMatP= 8.17D-08
 IDIUse=1 WtCom= 1.00D+00 WtEn= 0.00D+00
 Coeff-Com:  0.576D-04-0.144D-03-0.125D-02-0.257D-02-0.452D-02 0.577D-01
 Coeff-Com:  0.128D+00 0.823D+00
 Coeff:      0.576D-04-0.144D-03-0.125D-02-0.257D-02-0.452D-02 0.577D-01
 Coeff:      0.128D+00 0.823D+00
 Gap=     0.191 Goal=   None    Shift=    0.000
 RMSDP=2.36D-07 MaxDP=3.69D-06 DE=-8.96D-08 OVMax= 2.02D-05

 Cycle   9  Pass 1  IDiag  1:
 E= -385.463302004821     Delta-E=       -0.000000001058 Rises=F Damp=F
 DIIS: error= 3.73D-07 at cycle   9 NSaved=   9.
 NSaved= 9 IEnMin= 9 EnMin= -385.463302004821     IErMin= 9 ErrMin= 3.73D-07
 ErrMax= 3.73D-07  0.00D+00 EMaxC= 1.00D-01 BMatC= 1.48D-11 BMatP= 8.26D-10
 IDIUse=1 WtCom= 1.00D+00 WtEn= 0.00D+00
 Coeff-Com:  0.112D-04-0.203D-04-0.245D-03-0.589D-03-0.149D-02-0.923D-02
 Coeff-Com:  0.469D-02 0.149D+00 0.858D+00
 Coeff:      0.112D-04-0.203D-04-0.245D-03-0.589D-03-0.149D-02-0.923D-02
 Coeff:      0.469D-02 0.149D+00 0.858D+00
 Gap=     0.191 Goal=   None    Shift=    0.000
 RMSDP=3.84D-08 MaxDP=5.82D-07 DE=-1.06D-09 OVMax= 2.31D-06

 Cycle  10  Pass 1  IDiag  1:
 E= -385.463302004845     Delta-E=       -0.000000000024 Rises=F Damp=F
 DIIS: error= 7.14D-08 at cycle  10 NSaved=  10.
 NSaved=10 IEnMin=10 EnMin= -385.463302004845     IErMin=10 ErrMin= 7.14D-08
 ErrMax= 7.14D-08  0.00D+00 EMaxC= 1.00D-01 BMatC= 1.69D-13 BMatP= 1.48D-11
 IDIUse=1 WtCom= 1.00D+00 WtEn= 0.00D+00
 Coeff-Com: -0.185D-05 0.444D-05 0.426D-04 0.874D-04 0.193D-03-0.956D-03
 Coeff-Com: -0.324D-02-0.208D-01-0.934D-01 0.112D+01
 Coeff:     -0.185D-05 0.444D-05 0.426D-04 0.874D-04 0.193D-03-0.956D-03
 Coeff:     -0.324D-02-0.208D-01-0.934D-01 0.112D+01
 Gap=     0.191 Goal=   None    Shift=    0.000
 RMSDP=7.53D-09 MaxDP=2.00D-07 DE=-2.36D-11 OVMax= 7.61D-07

 Error on total polarization charges =  0.00536
 SCF Done:  E(RPBE1PBE) =  -385.463302005     A.U. after   10 cycles
            NFock= 10  Conv=0.75D-08     -V/T= 2.0090
 KE= 3.820333909680D+02 PE=-1.809898199651D+03 EE= 5.839869793438D+02
 Leave Link  502 at Tue Jun 21 17:25:43 2022, MaxMem=  2684354560 cpu:              59.2 elap:               7.6
 (Enter /gpfs1/apps/software/Gaussian16/AVX/g16/l601.exe)
 Copying SCF densities to generalized density rwf, IOpCl= 0 IROHF=0.

 **********************************************************************

            Population analysis using the SCF Density.

 **********************************************************************

 Orbital symmetries:
       Occupied  (AG) (B1U) (B2U) (AG) (B3G) (B1U) (B2U) (AG) (B3G)
                 (B1U) (AG) (B2U) (B1U) (AG) (B3G) (B2U) (B1U)
                 (AG) (B2U) (B3G) (AG) (B1U) (AG) (B3G) (B2U) (B1U)
                 (B3U) (B2U) (B3G) (B1G) (AG) (B2G) (B3U) (AU)
       Virtual   (B1G) (B2G) (B3U) (AG) (AU) (B2U) (B1U) (AG) (B3G)
                 (B1U) (B2U) (B2G) (B3G) (B1U) (AG) (B1U) (B3G)
                 (AG) (B2U) (B2U) (AG) (B1U) (B3U) (B1U) (B2U)
                 (B3G) (B1G) (AG) (B2G) (B3G) (B2U) (B1U) (B3G)
                 (B3U) (B2U) (AG) (AG) (AU) (B1U) (B2G) (B3U) (B1G)
                 (AU) (AG) (B1U) (B1U) (B3G) (B2G) (B2U) (B3G)
                 (AG) (B2U) (B1U) (B3G) (AG) (B3G) (B2U) (B2U)
                 (B1U) (AG) (B1U) (B3G) (B2U) (B3G) (B3U) (B1G)
                 (B1U) (AG) (B1G) (AU) (B3U) (B1G) (B2G) (AU) (B3U)
                 (AG) (B2U) (B3G) (B1U) (AG) (B2U) (AG) (B2G) (AG)
                 (B3G) (B2U) (B3U) (B1U) (B2U) (B1U) (B3G) (AG)
                 (B1U) (B2G) (AU) (B1G) (B2U) (B3G) (AG) (B1U)
                 (AU) (B2G) (B3G) (B3U) (B1G) (B2U) (AG) (B3U)
                 (B1G) (B2U) (B3G) (B2G) (B1U) (AG) (AU) (B1U)
                 (B2U) (B3U) (B3G) (AU) (B1G) (AG) (B1U) (B3G)
                 (B2G) (B2U) (B2G) (B1U) (AU) (AG) (B3G) (B2U)
                 (B1U) (AG) (B3G) (B1U) (AG) (B2U) (B3G) (B1U)
                 (B3G) (B1U) (B2U) (AG) (B1U) (B3G) (AG) (B2U)
                 (B1U) (AG) (B3G) (B2U) (B1U) (AG) (B3G) (B1U)
 The electronic state is 1-AG.
 Alpha  occ. eigenvalues --  -10.24769 -10.24723 -10.23988 -10.23987 -10.23958
 Alpha  occ. eigenvalues --  -10.23957 -10.23908 -10.23907 -10.23887 -10.23887
 Alpha  occ. eigenvalues --   -0.89987  -0.84498  -0.79603  -0.76221  -0.73952
 Alpha  occ. eigenvalues --   -0.64293  -0.62838  -0.61240  -0.52812  -0.52335
 Alpha  occ. eigenvalues --   -0.50632  -0.45846  -0.45207  -0.42698  -0.42615
 Alpha  occ. eigenvalues --   -0.40925  -0.40525  -0.37734  -0.34556  -0.34016
 Alpha  occ. eigenvalues --   -0.33765  -0.29674  -0.25388  -0.22530
 Alpha virt. eigenvalues --   -0.03397  -0.00371   0.03900   0.10704   0.10905
 Alpha virt. eigenvalues --    0.12571   0.13565   0.18198   0.18386   0.18928
 Alpha virt. eigenvalues --    0.19656   0.21296   0.22304   0.25412   0.29074
 Alpha virt. eigenvalues --    0.31750   0.31925   0.33368   0.33616   0.37130
 Alpha virt. eigenvalues --    0.48140   0.51189   0.52968   0.53735   0.53774
 Alpha virt. eigenvalues --    0.54034   0.56493   0.56797   0.58793   0.60097
 Alpha virt. eigenvalues --    0.60113   0.62392   0.62877   0.63040   0.63301
 Alpha virt. eigenvalues --    0.63515   0.64273   0.64446   0.64965   0.69357
 Alpha virt. eigenvalues --    0.70841   0.71027   0.77633   0.83045   0.83418
 Alpha virt. eigenvalues --    0.84134   0.84510   0.84853   0.85881   0.86573
 Alpha virt. eigenvalues --    0.90132   0.90533   0.94801   0.95407   0.96198
 Alpha virt. eigenvalues --    1.00737   1.01105   1.06491   1.06998   1.07538
 Alpha virt. eigenvalues --    1.10009   1.17274   1.20236   1.20898   1.24408
 Alpha virt. eigenvalues --    1.24755   1.29546   1.32931   1.33803   1.36206
 Alpha virt. eigenvalues --    1.36307   1.41412   1.41497   1.42518   1.44936
 Alpha virt. eigenvalues --    1.45590   1.47398   1.50357   1.54979   1.72911
 Alpha virt. eigenvalues --    1.76553   1.76623   1.82816   1.85957   1.88338
 Alpha virt. eigenvalues --    1.89394   1.89585   1.90077   1.92436   1.93695
 Alpha virt. eigenvalues --    1.94000   1.98216   2.00167   2.00460   2.01262
 Alpha virt. eigenvalues --    2.04316   2.05097   2.07199   2.11144   2.19101
 Alpha virt. eigenvalues --    2.23834   2.26834   2.29945   2.30284   2.31505
 Alpha virt. eigenvalues --    2.33724   2.34940   2.38971   2.40464   2.42671
 Alpha virt. eigenvalues --    2.43057   2.43370   2.46404   2.47718   2.48003
 Alpha virt. eigenvalues --    2.52063   2.55275   2.57185   2.58656   2.61305
 Alpha virt. eigenvalues --    2.62253   2.62421   2.63987   2.64805   2.65083
 Alpha virt. eigenvalues --    2.72513   2.75436   2.75497   2.77355   2.83789
 Alpha virt. eigenvalues --    2.87169   2.99733   3.05120   3.10443   3.18296
 Alpha virt. eigenvalues --    3.20102   3.26431   3.26826   3.27878   3.29999
 Alpha virt. eigenvalues --    3.38900   3.44268   3.50559   3.51013   3.83568
 Alpha virt. eigenvalues --    3.93386   4.14474   4.17340   4.18414   4.18925
 Alpha virt. eigenvalues --    4.22747   4.37973   4.44539   4.53384   4.67672
 Alpha virt. eigenvalues --    4.95754
     Molecular Orbital Coefficients:
                          30        31        32        33        34
                       (B1G)--O   (AG)--O  (B2G)--O  (B3U)--O   (AU)--O
     Eigenvalues --    -0.34016  -0.33765  -0.29674  -0.25388  -0.22530
   1 1   C  1S          0.00000   0.01140   0.00000   0.00000   0.00000
   2        2S          0.00000  -0.02964   0.00000   0.00000   0.00000
   3        2PX         0.15162   0.00000   0.22740   0.00152   0.25034
   4        2PY         0.00000   0.04190   0.00000   0.00000   0.00000
   5        2PZ         0.00000   0.16504   0.00000   0.00000   0.00000
   6        3S          0.00000  -0.02704   0.00000   0.00000   0.00000
   7        3PX         0.09922   0.00000   0.16344   0.00759   0.19094
   8        3PY         0.00000   0.01477   0.00000   0.00000   0.00000
   9        3PZ         0.00000   0.05232   0.00000   0.00000   0.00000
  10        4XX         0.00000  -0.00030   0.00000   0.00000   0.00000
  11        4YY         0.00000  -0.01280   0.00000   0.00000   0.00000
  12        4ZZ         0.00000   0.01742   0.00000   0.00000   0.00000
  13        4XY         0.00737   0.00000  -0.00346  -0.01681   0.00666
  14        4XZ        -0.00682   0.00000  -0.00504  -0.00015  -0.00433
  15        4YZ         0.00000  -0.00009   0.00000   0.00000   0.00000
  16 2   C  1S          0.00000  -0.00183   0.00000   0.00000   0.00000
  17        2S          0.00000   0.00574   0.00000   0.00000   0.00000
  18        2PX         0.23010   0.00000   0.10583  -0.23127   0.16296
  19        2PY         0.00000   0.00402   0.00000   0.00000   0.00000
  20        2PZ         0.00000  -0.16280   0.00000   0.00000   0.00000
  21        3S          0.00000   0.00226   0.00000   0.00000   0.00000
  22        3PX         0.14561   0.00000   0.06522  -0.17296   0.13511
  23        3PY         0.00000   0.00414   0.00000   0.00000   0.00000
  24        3PZ         0.00000  -0.06310   0.00000   0.00000   0.00000
  25        4XX         0.00000   0.00003   0.00000   0.00000   0.00000
  26        4YY         0.00000  -0.00973   0.00000   0.00000   0.00000
  27        4ZZ         0.00000   0.00799   0.00000   0.00000   0.00000
  28        4XY        -0.00671   0.00000  -0.00746  -0.00003  -0.00916
  29        4XZ        -0.00614   0.00000   0.00812   0.00859   0.01181
  30        4YZ         0.00000  -0.00319   0.00000   0.00000   0.00000
  31 3   C  1S          0.00000  -0.00183   0.00000   0.00000   0.00000
  32        2S          0.00000   0.00574   0.00000   0.00000   0.00000
  33        2PX         0.23010   0.00000  -0.10583  -0.23127  -0.16296
  34        2PY         0.00000   0.00402   0.00000   0.00000   0.00000
  35        2PZ         0.00000   0.16280   0.00000   0.00000   0.00000
  36        3S          0.00000   0.00226   0.00000   0.00000   0.00000
  37        3PX         0.14561   0.00000  -0.06522  -0.17296  -0.13511
  38        3PY         0.00000   0.00414   0.00000   0.00000   0.00000
  39        3PZ         0.00000   0.06310   0.00000   0.00000   0.00000
  40        4XX         0.00000   0.00003   0.00000   0.00000   0.00000
  41        4YY         0.00000  -0.00973   0.00000   0.00000   0.00000
  42        4ZZ         0.00000   0.00799   0.00000   0.00000   0.00000
  43        4XY        -0.00671   0.00000   0.00746  -0.00003   0.00916
  44        4XZ         0.00614   0.00000   0.00812  -0.00859   0.01181
  45        4YZ         0.00000   0.00319   0.00000   0.00000   0.00000
  46 4   C  1S          0.00000   0.01140   0.00000   0.00000   0.00000
  47        2S          0.00000  -0.02964   0.00000   0.00000   0.00000
  48        2PX         0.15162   0.00000  -0.22740   0.00152  -0.25034
  49        2PY         0.00000   0.04190   0.00000   0.00000   0.00000
  50        2PZ         0.00000  -0.16504   0.00000   0.00000   0.00000
  51        3S          0.00000  -0.02704   0.00000   0.00000   0.00000
  52        3PX         0.09922   0.00000  -0.16344   0.00759  -0.19094
  53        3PY         0.00000   0.01477   0.00000   0.00000   0.00000
  54        3PZ         0.00000  -0.05232   0.00000   0.00000   0.00000
  55        4XX         0.00000  -0.00030   0.00000   0.00000   0.00000
  56        4YY         0.00000  -0.01280   0.00000   0.00000   0.00000
  57        4ZZ         0.00000   0.01742   0.00000   0.00000   0.00000
  58        4XY         0.00737   0.00000   0.00346  -0.01681  -0.00666
  59        4XZ         0.00682   0.00000  -0.00504   0.00015  -0.00433
  60        4YZ         0.00000   0.00009   0.00000   0.00000   0.00000
  61 5   C  1S          0.00000   0.00099   0.00000   0.00000   0.00000
  62        2S          0.00000  -0.00077   0.00000   0.00000   0.00000
  63        2PX         0.00000   0.00000  -0.19734   0.26025   0.00000
  64        2PY         0.00000   0.00000   0.00000   0.00000   0.00000
  65        2PZ         0.00000   0.27701   0.00000   0.00000   0.00000
  66        3S          0.00000  -0.01360   0.00000   0.00000   0.00000
  67        3PX         0.00000   0.00000  -0.12168   0.18272   0.00000
  68        3PY         0.00000   0.00000   0.00000   0.00000   0.00000
  69        3PZ         0.00000   0.10748   0.00000   0.00000   0.00000
  70        4XX         0.00000   0.00011   0.00000   0.00000   0.00000
  71        4YY         0.00000  -0.01348   0.00000   0.00000   0.00000
  72        4ZZ         0.00000   0.01281   0.00000   0.00000   0.00000
  73        4XY         0.01226   0.00000   0.00000   0.00000  -0.01654
  74        4XZ         0.00000   0.00000   0.01556   0.00862   0.00000
  75        4YZ         0.00000   0.00000   0.00000   0.00000   0.00000
  76 6   C  1S          0.00000   0.00099   0.00000   0.00000   0.00000
  77        2S          0.00000  -0.00077   0.00000   0.00000   0.00000
  78        2PX         0.00000   0.00000   0.19734   0.26025   0.00000
  79        2PY         0.00000   0.00000   0.00000   0.00000   0.00000
  80        2PZ         0.00000  -0.27701   0.00000   0.00000   0.00000
  81        3S          0.00000  -0.01360   0.00000   0.00000   0.00000
  82        3PX         0.00000   0.00000   0.12168   0.18272   0.00000
  83        3PY         0.00000   0.00000   0.00000   0.00000   0.00000
  84        3PZ         0.00000  -0.10748   0.00000   0.00000   0.00000
  85        4XX         0.00000   0.00011   0.00000   0.00000   0.00000
  86        4YY         0.00000  -0.01348   0.00000   0.00000   0.00000
  87        4ZZ         0.00000   0.01281   0.00000   0.00000   0.00000
  88        4XY         0.01226   0.00000   0.00000   0.00000   0.01654
  89        4XZ         0.00000   0.00000   0.01556  -0.00862   0.00000
  90        4YZ         0.00000   0.00000   0.00000   0.00000   0.00000
  91 7   C  1S          0.00000   0.01140   0.00000   0.00000   0.00000
  92        2S          0.00000  -0.02964   0.00000   0.00000   0.00000
  93        2PX        -0.15162   0.00000   0.22740   0.00152  -0.25034
  94        2PY         0.00000  -0.04190   0.00000   0.00000   0.00000
  95        2PZ         0.00000   0.16504   0.00000   0.00000   0.00000
  96        3S          0.00000  -0.02704   0.00000   0.00000   0.00000
  97        3PX        -0.09922   0.00000   0.16344   0.00759  -0.19094
  98        3PY         0.00000  -0.01477   0.00000   0.00000   0.00000
  99        3PZ         0.00000   0.05232   0.00000   0.00000   0.00000
 100        4XX         0.00000  -0.00030   0.00000   0.00000   0.00000
 101        4YY         0.00000  -0.01280   0.00000   0.00000   0.00000
 102        4ZZ         0.00000   0.01742   0.00000   0.00000   0.00000
 103        4XY         0.00737   0.00000   0.00346   0.01681   0.00666
 104        4XZ         0.00682   0.00000  -0.00504  -0.00015   0.00433
 105        4YZ         0.00000   0.00009   0.00000   0.00000   0.00000
 106 8   C  1S          0.00000   0.01140   0.00000   0.00000   0.00000
 107        2S          0.00000  -0.02964   0.00000   0.00000   0.00000
 108        2PX        -0.15162   0.00000  -0.22740   0.00152   0.25034
 109        2PY         0.00000  -0.04190   0.00000   0.00000   0.00000
 110        2PZ         0.00000  -0.16504   0.00000   0.00000   0.00000
 111        3S          0.00000  -0.02704   0.00000   0.00000   0.00000
 112        3PX        -0.09922   0.00000  -0.16344   0.00759   0.19094
 113        3PY         0.00000  -0.01477   0.00000   0.00000   0.00000
 114        3PZ         0.00000  -0.05232   0.00000   0.00000   0.00000
 115        4XX         0.00000  -0.00030   0.00000   0.00000   0.00000
 116        4YY         0.00000  -0.01280   0.00000   0.00000   0.00000
 117        4ZZ         0.00000   0.01742   0.00000   0.00000   0.00000
 118        4XY         0.00737   0.00000  -0.00346   0.01681  -0.00666
 119        4XZ        -0.00682   0.00000  -0.00504   0.00015   0.00433
 120        4YZ         0.00000  -0.00009   0.00000   0.00000   0.00000
 121 9   C  1S          0.00000  -0.00183   0.00000   0.00000   0.00000
 122        2S          0.00000   0.00574   0.00000   0.00000   0.00000
 123        2PX        -0.23010   0.00000  -0.10583  -0.23127   0.16296
 124        2PY         0.00000  -0.00402   0.00000   0.00000   0.00000
 125        2PZ         0.00000   0.16280   0.00000   0.00000   0.00000
 126        3S          0.00000   0.00226   0.00000   0.00000   0.00000
 127        3PX        -0.14561   0.00000  -0.06522  -0.17296   0.13511
 128        3PY         0.00000  -0.00414   0.00000   0.00000   0.00000
 129        3PZ         0.00000   0.06310   0.00000   0.00000   0.00000
 130        4XX         0.00000   0.00003   0.00000   0.00000   0.00000
 131        4YY         0.00000  -0.00973   0.00000   0.00000   0.00000
 132        4ZZ         0.00000   0.00799   0.00000   0.00000   0.00000
 133        4XY        -0.00671   0.00000  -0.00746   0.00003   0.00916
 134        4XZ        -0.00614   0.00000   0.00812  -0.00859  -0.01181
 135        4YZ         0.00000  -0.00319   0.00000   0.00000   0.00000
 136 10  C  1S          0.00000  -0.00183   0.00000   0.00000   0.00000
 137        2S          0.00000   0.00574   0.00000   0.00000   0.00000
 138        2PX        -0.23010   0.00000   0.10583  -0.23127  -0.16296
 139        2PY         0.00000  -0.00402   0.00000   0.00000   0.00000
 140        2PZ         0.00000  -0.16280   0.00000   0.00000   0.00000
 141        3S          0.00000   0.00226   0.00000   0.00000   0.00000
 142        3PX        -0.14561   0.00000   0.06522  -0.17296  -0.13511
 143        3PY         0.00000  -0.00414   0.00000   0.00000   0.00000
 144        3PZ         0.00000  -0.06310   0.00000   0.00000   0.00000
 145        4XX         0.00000   0.00003   0.00000   0.00000   0.00000
 146        4YY         0.00000  -0.00973   0.00000   0.00000   0.00000
 147        4ZZ         0.00000   0.00799   0.00000   0.00000   0.00000
 148        4XY        -0.00671   0.00000   0.00746   0.00003  -0.00916
 149        4XZ         0.00614   0.00000   0.00812   0.00859  -0.01181
 150        4YZ         0.00000   0.00319   0.00000   0.00000   0.00000
 151 11  H  1S          0.00000   0.12607   0.00000   0.00000   0.00000
 152        2S          0.00000   0.15063   0.00000   0.00000   0.00000
 153        3PX         0.00325   0.00000   0.00575  -0.00002   0.00669
 154        3PY         0.00000   0.00015   0.00000   0.00000   0.00000
 155        3PZ         0.00000  -0.00212   0.00000   0.00000   0.00000
 156 12  H  1S          0.00000  -0.06019   0.00000   0.00000   0.00000
 157        2S          0.00000  -0.06409   0.00000   0.00000   0.00000
 158        3PX         0.00530   0.00000   0.00278  -0.00609   0.00436
 159        3PY         0.00000   0.00212   0.00000   0.00000   0.00000
 160        3PZ         0.00000  -0.00126   0.00000   0.00000   0.00000
 161 13  H  1S          0.00000  -0.06019   0.00000   0.00000   0.00000
 162        2S          0.00000  -0.06409   0.00000   0.00000   0.00000
 163        3PX         0.00530   0.00000  -0.00278  -0.00609  -0.00436
 164        3PY         0.00000   0.00212   0.00000   0.00000   0.00000
 165        3PZ         0.00000   0.00126   0.00000   0.00000   0.00000
 166 14  H  1S          0.00000   0.12607   0.00000   0.00000   0.00000
 167        2S          0.00000   0.15063   0.00000   0.00000   0.00000
 168        3PX         0.00325   0.00000  -0.00575  -0.00002  -0.00669
 169        3PY         0.00000   0.00015   0.00000   0.00000   0.00000
 170        3PZ         0.00000   0.00212   0.00000   0.00000   0.00000
 171 15  H  1S          0.00000   0.12607   0.00000   0.00000   0.00000
 172        2S          0.00000   0.15063   0.00000   0.00000   0.00000
 173        3PX        -0.00325   0.00000   0.00575  -0.00002  -0.00669
 174        3PY         0.00000  -0.00015   0.00000   0.00000   0.00000
 175        3PZ         0.00000  -0.00212   0.00000   0.00000   0.00000
 176 16  H  1S          0.00000   0.12607   0.00000   0.00000   0.00000
 177        2S          0.00000   0.15063   0.00000   0.00000   0.00000
 178        3PX        -0.00325   0.00000  -0.00575  -0.00002   0.00669
 179        3PY         0.00000  -0.00015   0.00000   0.00000   0.00000
 180        3PZ         0.00000   0.00212   0.00000   0.00000   0.00000
 181 17  H  1S          0.00000  -0.06019   0.00000   0.00000   0.00000
 182        2S          0.00000  -0.06409   0.00000   0.00000   0.00000
 183        3PX        -0.00530   0.00000  -0.00278  -0.00609   0.00436
 184        3PY         0.00000  -0.00212   0.00000   0.00000   0.00000
 185        3PZ         0.00000   0.00126   0.00000   0.00000   0.00000
 186 18  H  1S          0.00000  -0.06019   0.00000   0.00000   0.00000
 187        2S          0.00000  -0.06409   0.00000   0.00000   0.00000
 188        3PX        -0.00530   0.00000   0.00278  -0.00609  -0.00436
 189        3PY         0.00000  -0.00212   0.00000   0.00000   0.00000
 190        3PZ         0.00000  -0.00126   0.00000   0.00000   0.00000
                          35        36        37        38        39
                       (B1G)--V  (B2G)--V  (B3U)--V   (AG)--V   (AU)--V
     Eigenvalues --    -0.03397  -0.00371   0.03900   0.10704   0.10905
   1 1   C  1S          0.00000   0.00000   0.00000   0.02061   0.00000
   2        2S          0.00000   0.00000   0.00000  -0.03110   0.00000
   3        2PX         0.25898   0.00375   0.24483   0.00000  -0.19639
   4        2PY         0.00000   0.00000   0.00000  -0.04242   0.00000
   5        2PZ         0.00000   0.00000   0.00000  -0.12280   0.00000
   6        3S          0.00000   0.00000   0.00000  -0.34270   0.00000
   7        3PX         0.30705  -0.00881   0.39080   0.00000  -0.29389
   8        3PY         0.00000   0.00000   0.00000  -0.02001   0.00000
   9        3PZ         0.00000   0.00000   0.00000  -0.31852   0.00000
  10        4XX         0.00000   0.00000   0.00000  -0.00019   0.00000
  11        4YY         0.00000   0.00000   0.00000  -0.01043   0.00000
  12        4ZZ         0.00000   0.00000   0.00000   0.01402   0.00000
  13        4XY        -0.00662   0.02617   0.00398   0.00000   0.01580
  14        4XZ         0.00190   0.00012   0.01274   0.00000  -0.00564
  15        4YZ         0.00000   0.00000   0.00000  -0.00540   0.00000
  16 2   C  1S          0.00000   0.00000   0.00000   0.03220   0.00000
  17        2S          0.00000   0.00000   0.00000  -0.05352   0.00000
  18        2PX        -0.17390   0.24879  -0.09993   0.00000   0.27843
  19        2PY         0.00000   0.00000   0.00000  -0.10745   0.00000
  20        2PZ         0.00000   0.00000   0.00000  -0.04153   0.00000
  21        3S          0.00000   0.00000   0.00000  -0.48393   0.00000
  22        3PX        -0.20108   0.33648  -0.17823   0.00000   0.46219
  23        3PY         0.00000   0.00000   0.00000  -0.22603   0.00000
  24        3PZ         0.00000   0.00000   0.00000  -0.13189   0.00000
  25        4XX         0.00000   0.00000   0.00000  -0.00079   0.00000
  26        4YY         0.00000   0.00000   0.00000   0.01295   0.00000
  27        4ZZ         0.00000   0.00000   0.00000  -0.00567   0.00000
  28        4XY        -0.01362  -0.00066  -0.01138   0.00000   0.00914
  29        4XZ         0.01558   0.01379   0.01510   0.00000   0.01080
  30        4YZ         0.00000   0.00000   0.00000   0.01737   0.00000
  31 3   C  1S          0.00000   0.00000   0.00000   0.03220   0.00000
  32        2S          0.00000   0.00000   0.00000  -0.05352   0.00000
  33        2PX        -0.17390  -0.24879  -0.09993   0.00000  -0.27843
  34        2PY         0.00000   0.00000   0.00000  -0.10745   0.00000
  35        2PZ         0.00000   0.00000   0.00000   0.04153   0.00000
  36        3S          0.00000   0.00000   0.00000  -0.48393   0.00000
  37        3PX        -0.20108  -0.33648  -0.17823   0.00000  -0.46219
  38        3PY         0.00000   0.00000   0.00000  -0.22603   0.00000
  39        3PZ         0.00000   0.00000   0.00000   0.13189   0.00000
  40        4XX         0.00000   0.00000   0.00000  -0.00079   0.00000
  41        4YY         0.00000   0.00000   0.00000   0.01295   0.00000
  42        4ZZ         0.00000   0.00000   0.00000  -0.00567   0.00000
  43        4XY        -0.01362   0.00066  -0.01138   0.00000  -0.00914
  44        4XZ        -0.01558   0.01379  -0.01510   0.00000   0.01080
  45        4YZ         0.00000   0.00000   0.00000  -0.01737   0.00000
  46 4   C  1S          0.00000   0.00000   0.00000   0.02061   0.00000
  47        2S          0.00000   0.00000   0.00000  -0.03110   0.00000
  48        2PX         0.25898  -0.00375   0.24483   0.00000   0.19639
  49        2PY         0.00000   0.00000   0.00000  -0.04242   0.00000
  50        2PZ         0.00000   0.00000   0.00000   0.12280   0.00000
  51        3S          0.00000   0.00000   0.00000  -0.34270   0.00000
  52        3PX         0.30705   0.00881   0.39080   0.00000   0.29389
  53        3PY         0.00000   0.00000   0.00000  -0.02001   0.00000
  54        3PZ         0.00000   0.00000   0.00000   0.31852   0.00000
  55        4XX         0.00000   0.00000   0.00000  -0.00019   0.00000
  56        4YY         0.00000   0.00000   0.00000  -0.01043   0.00000
  57        4ZZ         0.00000   0.00000   0.00000   0.01402   0.00000
  58        4XY        -0.00662  -0.02617   0.00398   0.00000  -0.01580
  59        4XZ        -0.00190   0.00012  -0.01274   0.00000  -0.00564
  60        4YZ         0.00000   0.00000   0.00000   0.00540   0.00000
  61 5   C  1S          0.00000   0.00000   0.00000   0.02461   0.00000
  62        2S          0.00000   0.00000   0.00000  -0.05700   0.00000
  63        2PX         0.00000   0.27879  -0.23374   0.00000   0.00000
  64        2PY         0.00000   0.00000   0.00000   0.00000   0.00000
  65        2PZ         0.00000   0.00000   0.00000  -0.00506   0.00000
  66        3S          0.00000   0.00000   0.00000  -0.16821   0.00000
  67        3PX         0.00000   0.34127  -0.33294   0.00000   0.00000
  68        3PY         0.00000   0.00000   0.00000   0.00000   0.00000
  69        3PZ         0.00000   0.00000   0.00000  -0.06052   0.00000
  70        4XX         0.00000   0.00000   0.00000  -0.00399   0.00000
  71        4YY         0.00000   0.00000   0.00000   0.01662   0.00000
  72        4ZZ         0.00000   0.00000   0.00000  -0.00827   0.00000
  73        4XY         0.02420   0.00000   0.00000   0.00000   0.01802
  74        4XZ         0.00000  -0.01615  -0.02925   0.00000   0.00000
  75        4YZ         0.00000   0.00000   0.00000   0.00000   0.00000
  76 6   C  1S          0.00000   0.00000   0.00000   0.02461   0.00000
  77        2S          0.00000   0.00000   0.00000  -0.05700   0.00000
  78        2PX         0.00000  -0.27879  -0.23374   0.00000   0.00000
  79        2PY         0.00000   0.00000   0.00000   0.00000   0.00000
  80        2PZ         0.00000   0.00000   0.00000   0.00506   0.00000
  81        3S          0.00000   0.00000   0.00000  -0.16821   0.00000
  82        3PX         0.00000  -0.34127  -0.33294   0.00000   0.00000
  83        3PY         0.00000   0.00000   0.00000   0.00000   0.00000
  84        3PZ         0.00000   0.00000   0.00000   0.06052   0.00000
  85        4XX         0.00000   0.00000   0.00000  -0.00399   0.00000
  86        4YY         0.00000   0.00000   0.00000   0.01662   0.00000
  87        4ZZ         0.00000   0.00000   0.00000  -0.00827   0.00000
  88        4XY         0.02420   0.00000   0.00000   0.00000  -0.01802
  89        4XZ         0.00000  -0.01615   0.02925   0.00000   0.00000
  90        4YZ         0.00000   0.00000   0.00000   0.00000   0.00000
  91 7   C  1S          0.00000   0.00000   0.00000   0.02061   0.00000
  92        2S          0.00000   0.00000   0.00000  -0.03110   0.00000
  93        2PX        -0.25898   0.00375   0.24483   0.00000   0.19639
  94        2PY         0.00000   0.00000   0.00000   0.04242   0.00000
  95        2PZ         0.00000   0.00000   0.00000  -0.12280   0.00000
  96        3S          0.00000   0.00000   0.00000  -0.34270   0.00000
  97        3PX        -0.30705  -0.00881   0.39080   0.00000   0.29389
  98        3PY         0.00000   0.00000   0.00000   0.02001   0.00000
  99        3PZ         0.00000   0.00000   0.00000  -0.31852   0.00000
 100        4XX         0.00000   0.00000   0.00000  -0.00019   0.00000
 101        4YY         0.00000   0.00000   0.00000  -0.01043   0.00000
 102        4ZZ         0.00000   0.00000   0.00000   0.01402   0.00000
 103        4XY        -0.00662  -0.02617  -0.00398   0.00000   0.01580
 104        4XZ        -0.00190   0.00012   0.01274   0.00000   0.00564
 105        4YZ         0.00000   0.00000   0.00000   0.00540   0.00000
 106 8   C  1S          0.00000   0.00000   0.00000   0.02061   0.00000
 107        2S          0.00000   0.00000   0.00000  -0.03110   0.00000
 108        2PX        -0.25898  -0.00375   0.24483   0.00000  -0.19639
 109        2PY         0.00000   0.00000   0.00000   0.04242   0.00000
 110        2PZ         0.00000   0.00000   0.00000   0.12280   0.00000
 111        3S          0.00000   0.00000   0.00000  -0.34270   0.00000
 112        3PX        -0.30705   0.00881   0.39080   0.00000  -0.29389
 113        3PY         0.00000   0.00000   0.00000   0.02001   0.00000
 114        3PZ         0.00000   0.00000   0.00000   0.31852   0.00000
 115        4XX         0.00000   0.00000   0.00000  -0.00019   0.00000
 116        4YY         0.00000   0.00000   0.00000  -0.01043   0.00000
 117        4ZZ         0.00000   0.00000   0.00000   0.01402   0.00000
 118        4XY        -0.00662   0.02617  -0.00398   0.00000  -0.01580
 119        4XZ         0.00190   0.00012  -0.01274   0.00000   0.00564
 120        4YZ         0.00000   0.00000   0.00000  -0.00540   0.00000
 121 9   C  1S          0.00000   0.00000   0.00000   0.03220   0.00000
 122        2S          0.00000   0.00000   0.00000  -0.05352   0.00000
 123        2PX         0.17390  -0.24879  -0.09993   0.00000   0.27843
 124        2PY         0.00000   0.00000   0.00000   0.10745   0.00000
 125        2PZ         0.00000   0.00000   0.00000   0.04153   0.00000
 126        3S          0.00000   0.00000   0.00000  -0.48393   0.00000
 127        3PX         0.20108  -0.33648  -0.17823   0.00000   0.46219
 128        3PY         0.00000   0.00000   0.00000   0.22603   0.00000
 129        3PZ         0.00000   0.00000   0.00000   0.13189   0.00000
 130        4XX         0.00000   0.00000   0.00000  -0.00079   0.00000
 131        4YY         0.00000   0.00000   0.00000   0.01295   0.00000
 132        4ZZ         0.00000   0.00000   0.00000  -0.00567   0.00000
 133        4XY        -0.01362  -0.00066   0.01138   0.00000  -0.00914
 134        4XZ         0.01558   0.01379  -0.01510   0.00000  -0.01080
 135        4YZ         0.00000   0.00000   0.00000   0.01737   0.00000
 136 10  C  1S          0.00000   0.00000   0.00000   0.03220   0.00000
 137        2S          0.00000   0.00000   0.00000  -0.05352   0.00000
 138        2PX         0.17390   0.24879  -0.09993   0.00000  -0.27843
 139        2PY         0.00000   0.00000   0.00000   0.10745   0.00000
 140        2PZ         0.00000   0.00000   0.00000  -0.04153   0.00000
 141        3S          0.00000   0.00000   0.00000  -0.48393   0.00000
 142        3PX         0.20108   0.33648  -0.17823   0.00000  -0.46219
 143        3PY         0.00000   0.00000   0.00000   0.22603   0.00000
 144        3PZ         0.00000   0.00000   0.00000  -0.13189   0.00000
 145        4XX         0.00000   0.00000   0.00000  -0.00079   0.00000
 146        4YY         0.00000   0.00000   0.00000   0.01295   0.00000
 147        4ZZ         0.00000   0.00000   0.00000  -0.00567   0.00000
 148        4XY        -0.01362   0.00066   0.01138   0.00000   0.00914
 149        4XZ        -0.01558   0.01379   0.01510   0.00000  -0.01080
 150        4YZ         0.00000   0.00000   0.00000  -0.01737   0.00000
 151 11  H  1S          0.00000   0.00000   0.00000   0.03197   0.00000
 152        2S          0.00000   0.00000   0.00000   0.59885   0.00000
 153        3PX         0.00860   0.00016   0.01098   0.00000  -0.00843
 154        3PY         0.00000   0.00000   0.00000  -0.00368   0.00000
 155        3PZ         0.00000   0.00000   0.00000   0.00348   0.00000
 156 12  H  1S          0.00000   0.00000   0.00000   0.06030   0.00000
 157        2S          0.00000   0.00000   0.00000   0.67496   0.00000
 158        3PX        -0.00639   0.00927  -0.00390   0.00000   0.01322
 159        3PY         0.00000   0.00000   0.00000   0.00387   0.00000
 160        3PZ         0.00000   0.00000   0.00000   0.00232   0.00000
 161 13  H  1S          0.00000   0.00000   0.00000   0.06030   0.00000
 162        2S          0.00000   0.00000   0.00000   0.67496   0.00000
 163        3PX        -0.00639  -0.00927  -0.00390   0.00000  -0.01322
 164        3PY         0.00000   0.00000   0.00000   0.00387   0.00000
 165        3PZ         0.00000   0.00000   0.00000  -0.00232   0.00000
 166 14  H  1S          0.00000   0.00000   0.00000   0.03197   0.00000
 167        2S          0.00000   0.00000   0.00000   0.59885   0.00000
 168        3PX         0.00860  -0.00016   0.01098   0.00000   0.00843
 169        3PY         0.00000   0.00000   0.00000  -0.00368   0.00000
 170        3PZ         0.00000   0.00000   0.00000  -0.00348   0.00000
 171 15  H  1S          0.00000   0.00000   0.00000   0.03197   0.00000
 172        2S          0.00000   0.00000   0.00000   0.59885   0.00000
 173        3PX        -0.00860   0.00016   0.01098   0.00000   0.00843
 174        3PY         0.00000   0.00000   0.00000   0.00368   0.00000
 175        3PZ         0.00000   0.00000   0.00000   0.00348   0.00000
 176 16  H  1S          0.00000   0.00000   0.00000   0.03197   0.00000
 177        2S          0.00000   0.00000   0.00000   0.59885   0.00000
 178        3PX        -0.00860  -0.00016   0.01098   0.00000  -0.00843
 179        3PY         0.00000   0.00000   0.00000   0.00368   0.00000
 180        3PZ         0.00000   0.00000   0.00000  -0.00348   0.00000
 181 17  H  1S          0.00000   0.00000   0.00000   0.06030   0.00000
 182        2S          0.00000   0.00000   0.00000   0.67496   0.00000
 183        3PX         0.00639  -0.00927  -0.00390   0.00000   0.01322
 184        3PY         0.00000   0.00000   0.00000  -0.00387   0.00000
 185        3PZ         0.00000   0.00000   0.00000  -0.00232   0.00000
 186 18  H  1S          0.00000   0.00000   0.00000   0.06030   0.00000
 187        2S          0.00000   0.00000   0.00000   0.67496   0.00000
 188        3PX         0.00639   0.00927  -0.00390   0.00000  -0.01322
 189        3PY         0.00000   0.00000   0.00000  -0.00387   0.00000
 190        3PZ         0.00000   0.00000   0.00000   0.00232   0.00000
     Density Matrix:
                           1         2         3         4         5
   1 1   C  1S          2.05436
   2        2S         -0.06581   0.31412
   3        2PX         0.00000  -0.00000   0.32618
   4        2PY        -0.00094   0.00494  -0.00000   0.41537
   5        2PZ         0.00049  -0.00503   0.00000  -0.00597   0.40884
   6        3S         -0.17322   0.25775  -0.00000  -0.07832  -0.00641
   7        3PX         0.00000   0.00000   0.22844   0.00000  -0.00000
   8        3PY         0.00242  -0.00292   0.00000   0.14287   0.00047
   9        3PZ         0.00129   0.01963  -0.00000   0.03932   0.15374
  10        4XX        -0.01032  -0.01219  -0.00000   0.00039   0.00020
  11        4YY        -0.01583   0.00036  -0.00000  -0.00239  -0.01167
  12        4ZZ        -0.01604   0.00025   0.00000  -0.00058   0.01458
  13        4XY         0.00000  -0.00000   0.00297  -0.00000  -0.00000
  14        4XZ        -0.00000   0.00000  -0.00907  -0.00000   0.00000
  15        4YZ         0.00001  -0.00042  -0.00000  -0.01689  -0.00011
  16 2   C  1S          0.01769  -0.03542   0.00000  -0.06962   0.04128
  17        2S         -0.03513   0.06031  -0.00000   0.13787  -0.08163
  18        2PX        -0.00000   0.00000   0.24070   0.00000  -0.00000
  19        2PY         0.07017  -0.14118   0.00000  -0.23019   0.14398
  20        2PZ        -0.03977   0.08357  -0.00000   0.14733  -0.06525
  21        3S          0.00569   0.02274  -0.00000   0.13373  -0.06790
  22        3PX        -0.00000   0.00000   0.16441   0.00000  -0.00000
  23        3PY         0.00799  -0.03672   0.00000  -0.08746   0.02985
  24        3PZ        -0.00776   0.01340  -0.00000   0.05080  -0.01547
  25        4XX         0.00165  -0.00383   0.00000  -0.00452   0.00282
  26        4YY        -0.00426   0.00669  -0.00000  -0.00273  -0.01116
  27        4ZZ         0.00034  -0.00242   0.00000  -0.00109   0.01255
  28        4XY         0.00000  -0.00000  -0.01219  -0.00000   0.00000
  29        4XZ        -0.00000   0.00000   0.00694   0.00000   0.00000
  30        4YZ         0.00477  -0.00910   0.00000  -0.01166  -0.00132
  31 3   C  1S         -0.00328   0.00816  -0.00000   0.00889  -0.01184
  32        2S          0.00826  -0.01808   0.00000  -0.02233   0.03019
  33        2PX         0.00000  -0.00000  -0.01875  -0.00000   0.00000
  34        2PY        -0.00581   0.01381  -0.00000   0.01648  -0.00944
  35        2PZ         0.01361  -0.03540   0.00000  -0.03171   0.03987
  36        3S         -0.00500  -0.00947   0.00000  -0.02076   0.03864
  37        3PX         0.00000  -0.00000  -0.03021  -0.00000   0.00000
  38        3PY         0.00580  -0.00213   0.00000  -0.00007   0.02324
  39        3PZ         0.00503  -0.01758   0.00000  -0.01996   0.03488
  40        4XX         0.00011   0.00003   0.00000  -0.00017   0.00066
  41        4YY        -0.00023   0.00089  -0.00000   0.00165  -0.00088
  42        4ZZ        -0.00040   0.00082  -0.00000   0.00253  -0.00329
  43        4XY         0.00000  -0.00000   0.00377  -0.00000   0.00000
  44        4XZ        -0.00000   0.00000   0.01227   0.00000  -0.00000
  45        4YZ         0.00202  -0.00436   0.00000  -0.00833   0.00617
  46 4   C  1S         -0.00315   0.00530  -0.00000   0.00063  -0.00816
  47        2S          0.00530  -0.01095   0.00000  -0.00149   0.01620
  48        2PX         0.00000  -0.00000  -0.13135   0.00000   0.00000
  49        2PY         0.00063  -0.00149  -0.00000  -0.03038  -0.00137
  50        2PZ         0.00816  -0.01620   0.00000   0.00137   0.02604
  51        3S          0.02187  -0.02885   0.00000   0.01607   0.07110
  52        3PX         0.00000  -0.00000  -0.11142   0.00000   0.00000
  53        3PY         0.00146  -0.00186  -0.00000  -0.02600  -0.00365
  54        3PZ         0.01227  -0.01477   0.00000   0.01380   0.02794
  55        4XX        -0.00031   0.00030   0.00000   0.00001  -0.00011
  56        4YY        -0.00041   0.00104  -0.00000   0.00016  -0.00057
  57        4ZZ         0.00040  -0.00121   0.00000   0.00010   0.00098
  58        4XY         0.00000  -0.00000  -0.00056  -0.00000   0.00000
  59        4XZ         0.00000  -0.00000   0.00015   0.00000   0.00000
  60        4YZ         0.00001  -0.00007   0.00000  -0.00288   0.00006
  61 5   C  1S         -0.00339   0.00824  -0.00000  -0.01000  -0.01134
  62        2S          0.00790  -0.01749   0.00000   0.02215   0.02552
  63        2PX         0.00000  -0.00000  -0.01257   0.00000   0.00000
  64        2PY         0.00554  -0.01126   0.00000   0.01846   0.01140
  65        2PZ         0.01519  -0.03604   0.00000   0.03490   0.04039
  66        3S          0.00118  -0.02153   0.00000   0.03973   0.06617
  67        3PX         0.00000  -0.00000  -0.01153   0.00000   0.00000
  68        3PY        -0.00879   0.00934  -0.00000  -0.05688  -0.04850
  69        3PZ         0.00185  -0.01473   0.00000   0.00167   0.03684
  70        4XX         0.00003   0.00020   0.00000  -0.00021   0.00017
  71        4YY        -0.00006   0.00043  -0.00000  -0.00090  -0.00022
  72        4ZZ        -0.00017   0.00032  -0.00000  -0.00185  -0.00215
  73        4XY        -0.00000   0.00000  -0.00456  -0.00000  -0.00000
  74        4XZ        -0.00000   0.00000   0.00834  -0.00000  -0.00000
  75        4YZ        -0.00171   0.00333  -0.00000  -0.00818  -0.00560
  76 6   C  1S          0.01599  -0.03155   0.00000   0.06654   0.03766
  77        2S         -0.03147   0.05436  -0.00000  -0.13464  -0.07398
  78        2PX        -0.00000   0.00000   0.16693  -0.00000  -0.00000
  79        2PY        -0.06656   0.12801  -0.00000  -0.24095  -0.13807
  80        2PZ        -0.03780   0.07767  -0.00000  -0.14230  -0.06271
  81        3S          0.00979   0.01617  -0.00000  -0.09710  -0.08426
  82        3PX        -0.00000   0.00000   0.09915  -0.00000  -0.00000
  83        3PY        -0.00508   0.03111  -0.00000   0.01022  -0.02361
  84        3PZ        -0.00767   0.01014  -0.00000  -0.04961  -0.00582
  85        4XX         0.00146  -0.00351   0.00000   0.00371   0.00247
  86        4YY        -0.00499   0.00811  -0.00000   0.00171  -0.01072
  87        4ZZ         0.00027  -0.00226   0.00000   0.00087   0.01078
  88        4XY        -0.00000   0.00000   0.01200  -0.00000  -0.00000
  89        4XZ        -0.00000   0.00000   0.00581  -0.00000   0.00000
  90        4YZ        -0.00478   0.00871  -0.00000  -0.01047   0.00219
  91 7   C  1S         -0.00428   0.00893   0.00000  -0.01622   0.00156
  92        2S          0.00893  -0.01901  -0.00000   0.03151  -0.00484
  93        2PX         0.00000  -0.00000  -0.01645  -0.00000   0.00000
  94        2PY         0.01622  -0.03151   0.00000   0.06088   0.00692
  95        2PZ         0.00156  -0.00484   0.00000  -0.00692  -0.01500
  96        3S          0.01266  -0.02053  -0.00000   0.14007  -0.01108
  97        3PX         0.00000  -0.00000  -0.02293  -0.00000   0.00000
  98        3PY         0.00502  -0.00633   0.00000   0.02060   0.00845
  99        3PZ         0.00268  -0.00583   0.00000  -0.05338  -0.01509
 100        4XX        -0.00013   0.00031  -0.00000  -0.00070  -0.00033
 101        4YY        -0.00153   0.00343  -0.00000  -0.00835  -0.00234
 102        4ZZ         0.00140  -0.00262   0.00000   0.00586   0.00261
 103        4XY        -0.00000   0.00000   0.00817  -0.00000  -0.00000
 104        4XZ         0.00000  -0.00000  -0.00060   0.00000   0.00000
 105        4YZ        -0.00133   0.00259  -0.00000  -0.00458  -0.00138
 106 8   C  1S          0.00174  -0.00410   0.00000   0.00713   0.00551
 107        2S         -0.00410   0.00860  -0.00000  -0.01521  -0.01056
 108        2PX        -0.00000   0.00000   0.02739  -0.00000  -0.00000
 109        2PY        -0.00713   0.01521  -0.00000  -0.02687  -0.01896
 110        2PZ        -0.00551   0.01056  -0.00000  -0.01896  -0.01081
 111        3S         -0.01003   0.01946  -0.00000  -0.07608  -0.05862
 112        3PX        -0.00000   0.00000   0.01960  -0.00000  -0.00000
 113        3PY        -0.00741   0.01309  -0.00000  -0.03960  -0.02486
 114        3PZ        -0.00291   0.00724  -0.00000  -0.02302  -0.02488
 115        4XX        -0.00001  -0.00011   0.00000  -0.00003   0.00023
 116        4YY        -0.00041   0.00080  -0.00000  -0.00089  -0.00100
 117        4ZZ         0.00073  -0.00160   0.00000   0.00188   0.00169
 118        4XY         0.00000  -0.00000  -0.00165   0.00000   0.00000
 119        4XZ         0.00000  -0.00000   0.00035   0.00000   0.00000
 120        4YZ         0.00023  -0.00043   0.00000   0.00055   0.00086
 121 9   C  1S          0.00028  -0.00074   0.00000   0.00101   0.00174
 122        2S         -0.00057   0.00103  -0.00000  -0.00376  -0.00451
 123        2PX         0.00000  -0.00000   0.00488  -0.00000  -0.00000
 124        2PY        -0.00111   0.00133  -0.00000  -0.00379  -0.00296
 125        2PZ         0.00021  -0.00132  -0.00000  -0.00308  -0.00485
 126        3S         -0.00386   0.00569   0.00000   0.00350   0.00107
 127        3PX         0.00000  -0.00000   0.01678   0.00000  -0.00000
 128        3PY        -0.00087   0.00052   0.00000   0.01271   0.00455
 129        3PZ         0.00052  -0.00104  -0.00000   0.00992   0.00355
 130        4XX        -0.00003   0.00001  -0.00000  -0.00034  -0.00015
 131        4YY        -0.00024   0.00054  -0.00000  -0.00098  -0.00028
 132        4ZZ         0.00005  -0.00009   0.00000   0.00033   0.00031
 133        4XY        -0.00000   0.00000   0.00133  -0.00000  -0.00000
 134        4XZ         0.00000  -0.00000  -0.00328   0.00000   0.00000
 135        4YZ        -0.00041   0.00080  -0.00000  -0.00139  -0.00030
 136 10  C  1S          0.00232  -0.00456   0.00000   0.00920   0.00119
 137        2S         -0.00562   0.01071  -0.00000  -0.01904  -0.00369
 138        2PX        -0.00000   0.00000  -0.06204  -0.00000   0.00000
 139        2PY        -0.00943   0.01799  -0.00000  -0.03431  -0.00789
 140        2PZ        -0.00474   0.00994   0.00000  -0.01765   0.00029
 141        3S         -0.00640   0.01495  -0.00000  -0.08477  -0.00521
 142        3PX        -0.00000   0.00000  -0.05919  -0.00000   0.00000
 143        3PY        -0.00324   0.00805  -0.00000  -0.04389  -0.00262
 144        3PZ        -0.00528   0.01073   0.00000  -0.01683   0.00186
 145        4XX        -0.00003  -0.00002  -0.00000   0.00017  -0.00023
 146        4YY         0.00064  -0.00118   0.00000   0.00244   0.00131
 147        4ZZ        -0.00005  -0.00005   0.00000  -0.00085  -0.00062
 148        4XY        -0.00000   0.00000  -0.00106  -0.00000   0.00000
 149        4XZ        -0.00000  -0.00000  -0.00116  -0.00000   0.00000
 150        4YZ        -0.00028   0.00046   0.00000  -0.00139  -0.00050
 151 11  H  1S         -0.06123   0.11451   0.00000  -0.00155   0.26067
 152        2S         -0.01708   0.03239   0.00000  -0.00817   0.21852
 153        3PX         0.00000  -0.00000   0.00808  -0.00000  -0.00000
 154        3PY        -0.00004   0.00015  -0.00000   0.00683  -0.00030
 155        3PZ         0.00557  -0.00963  -0.00000  -0.00017  -0.00890
 156 12  H  1S          0.01287  -0.02791   0.00000  -0.04419   0.00493
 157        2S          0.01579  -0.02866   0.00000  -0.07715   0.00438
 158        3PX        -0.00000   0.00000   0.00590   0.00000  -0.00000
 159        3PY         0.00042  -0.00103   0.00000  -0.00410   0.00104
 160        3PZ        -0.00087   0.00173  -0.00000   0.00290  -0.00151
 161 13  H  1S         -0.00790   0.01880  -0.00000   0.02789  -0.01872
 162        2S         -0.01176   0.02505  -0.00000   0.04504  -0.04084
 163        3PX         0.00000  -0.00000  -0.00099  -0.00000   0.00000
 164        3PY         0.00006  -0.00020  -0.00000   0.00003  -0.00008
 165        3PZ         0.00033  -0.00059   0.00000  -0.00095   0.00083
 166 14  H  1S         -0.00087   0.00121  -0.00000  -0.00124  -0.00435
 167        2S          0.00221  -0.00359   0.00000   0.00489   0.00350
 168        3PX        -0.00000   0.00000  -0.00385  -0.00000   0.00000
 169        3PY        -0.00004   0.00005  -0.00000  -0.00018  -0.00013
 170        3PZ        -0.00007   0.00017   0.00000  -0.00008  -0.00034
 171 15  H  1S          0.00682  -0.01541  -0.00000   0.02354  -0.00233
 172        2S          0.00457  -0.01130   0.00000   0.03578   0.01537
 173        3PX        -0.00000   0.00000  -0.00059  -0.00000   0.00000
 174        3PY         0.00015  -0.00040   0.00000   0.00121   0.00103
 175        3PZ        -0.00025   0.00063   0.00000  -0.00076   0.00072
 176 16  H  1S          0.00333  -0.00646   0.00000   0.00992   0.00701
 177        2S          0.00522  -0.01029   0.00000   0.01533   0.01169
 178        3PX        -0.00000   0.00000   0.00087   0.00000  -0.00000
 179        3PY        -0.00011   0.00024  -0.00000  -0.00026  -0.00031
 180        3PZ        -0.00002   0.00009  -0.00000   0.00003  -0.00008
 181 17  H  1S         -0.00101   0.00271   0.00000  -0.00251   0.00021
 182        2S         -0.00202   0.00462   0.00000  -0.00131   0.00187
 183        3PX         0.00000  -0.00000   0.00016   0.00000  -0.00000
 184        3PY         0.00004  -0.00003   0.00000   0.00024   0.00009
 185        3PZ         0.00004  -0.00008  -0.00000   0.00008  -0.00008
 186 18  H  1S          0.00264  -0.00465   0.00000   0.01148   0.00528
 187        2S          0.00524  -0.00916   0.00000   0.01954   0.00710
 188        3PX        -0.00000   0.00000  -0.00168  -0.00000   0.00000
 189        3PY        -0.00014   0.00027  -0.00000  -0.00028  -0.00005
 190        3PZ        -0.00011   0.00020   0.00000  -0.00037  -0.00017
                           6         7         8         9        10
   6        3S          0.28591
   7        3PX        -0.00000   0.16182
   8        3PY        -0.03828   0.00000   0.05796
   9        3PZ        -0.01099  -0.00000   0.01668   0.07177
  10        4XX        -0.00884  -0.00000   0.00033  -0.00076   0.00058
  11        4YY        -0.00115  -0.00000  -0.00082  -0.00374   0.00006
  12        4ZZ         0.00244   0.00000  -0.00030   0.00469   0.00003
  13        4XY         0.00000   0.00208  -0.00000  -0.00000  -0.00000
  14        4XZ         0.00000  -0.00606  -0.00000   0.00000  -0.00000
  15        4YZ         0.00257  -0.00000  -0.00452  -0.00183  -0.00000
  16 2   C  1S          0.01378   0.00000  -0.01322   0.00020   0.00159
  17        2S          0.01341  -0.00000   0.03061  -0.02108  -0.00376
  18        2PX         0.00000   0.16211   0.00000  -0.00000  -0.00000
  19        2PY        -0.08903   0.00000  -0.06964   0.01668   0.00429
  20        2PZ         0.02031  -0.00000   0.07110   0.00002  -0.00184
  21        3S         -0.03322  -0.00000   0.03021  -0.00981  -0.00218
  22        3PX        -0.00000   0.11214   0.00000  -0.00000  -0.00000
  23        3PY        -0.00776  -0.00000  -0.02798  -0.00720   0.00104
  24        3PZ        -0.00829  -0.00000   0.02191   0.00233  -0.00015
  25        4XX        -0.00176   0.00000  -0.00104   0.00064   0.00021
  26        4YY         0.00541  -0.00000  -0.00037  -0.00399  -0.00022
  27        4ZZ        -0.00188  -0.00000  -0.00104   0.00459   0.00005
  28        4XY        -0.00000  -0.00847  -0.00000   0.00000   0.00000
  29        4XZ        -0.00000   0.00562   0.00000  -0.00000  -0.00000
  30        4YZ        -0.00705   0.00000  -0.00454  -0.00233   0.00026
  31 3   C  1S         -0.00785   0.00000   0.00881   0.00232   0.00009
[...]
 176 16  H  1S         -0.00000   0.00050   0.00000   0.00000  -0.00000
 177        2S          0.00050   0.00440   0.00000  -0.00000  -0.00000
 178        3PX         0.00000   0.00000  -0.00000   0.00000   0.00000
 179        3PY         0.00000  -0.00000  -0.00000  -0.00000   0.00000
 180        3PZ         0.00000   0.00000   0.00000   0.00000  -0.00000
 181 17  H  1S         -0.00000  -0.00000   0.00000  -0.00000  -0.00000
 182        2S         -0.00000  -0.00001   0.00000  -0.00000  -0.00000
 183        3PX         0.00000   0.00000  -0.00000   0.00000  -0.00000
 184        3PY         0.00000   0.00000   0.00000   0.00000   0.00000
 185        3PZ         0.00000   0.00000  -0.00000   0.00000   0.00000
 186 18  H  1S          0.00000  -0.00000   0.00000   0.00000   0.00000
 187        2S          0.00000  -0.00000  -0.00000  -0.00000   0.00000
 188        3PX         0.00000   0.00000   0.00000   0.00000   0.00000
 189        3PY         0.00000  -0.00000   0.00000   0.00000   0.00000
 190        3PZ         0.00000  -0.00000   0.00000   0.00000   0.00000
                         171       172       173       174       175
 171 15  H  1S          0.21520
 172        2S          0.10583   0.13723
 173        3PX         0.00000   0.00000   0.00020
 174        3PY         0.00000   0.00000   0.00000   0.00012
 175        3PZ         0.00000   0.00000  -0.00000   0.00000   0.00050
 176 16  H  1S          0.00000   0.00000  -0.00000  -0.00000  -0.00000
 177        2S          0.00000   0.00002  -0.00000  -0.00000  -0.00000
 178        3PX         0.00000   0.00000  -0.00000  -0.00000  -0.00000
 179        3PY        -0.00000  -0.00000   0.00000   0.00000   0.00000
 180        3PZ        -0.00000  -0.00000  -0.00000   0.00000  -0.00000
 181 17  H  1S         -0.00000  -0.00000   0.00000   0.00000   0.00000
 182        2S         -0.00000  -0.00016  -0.00000   0.00000  -0.00000
 183        3PX         0.00000   0.00000  -0.00000  -0.00000  -0.00000
 184        3PY        -0.00000  -0.00000   0.00000   0.00000   0.00000
 185        3PZ         0.00000   0.00000  -0.00000  -0.00000  -0.00000
 186 18  H  1S         -0.00001  -0.00075  -0.00000  -0.00000  -0.00000
 187        2S         -0.00080  -0.00314  -0.00000  -0.00003  -0.00001
 188        3PX         0.00000   0.00000   0.00000   0.00000   0.00000
 189        3PY        -0.00000  -0.00003   0.00000   0.00000   0.00000
 190        3PZ        -0.00000  -0.00001   0.00000   0.00000   0.00000
                         176       177       178       179       180
 176 16  H  1S          0.21520
 177        2S          0.10583   0.13723
 178        3PX         0.00000   0.00000   0.00020
 179        3PY         0.00000   0.00000   0.00000   0.00012
 180        3PZ         0.00000   0.00000   0.00000   0.00000   0.00050
 181 17  H  1S         -0.00001  -0.00075   0.00000  -0.00000  -0.00000
 182        2S         -0.00080  -0.00314   0.00000  -0.00003  -0.00001
 183        3PX        -0.00000  -0.00000   0.00000   0.00000   0.00000
 184        3PY        -0.00000  -0.00003   0.00000   0.00000   0.00000
 185        3PZ        -0.00000  -0.00001   0.00000   0.00000   0.00000
 186 18  H  1S         -0.00000  -0.00000   0.00000   0.00000   0.00000
 187        2S         -0.00000  -0.00016   0.00000   0.00000  -0.00000
 188        3PX         0.00000   0.00000  -0.00000   0.00000   0.00000
 189        3PY        -0.00000  -0.00000   0.00000   0.00000   0.00000
 190        3PZ         0.00000   0.00000   0.00000  -0.00000  -0.00000
                         181       182       183       184       185
 181 17  H  1S          0.21548
 182        2S          0.10507   0.13193
 183        3PX         0.00000   0.00000   0.00020
 184        3PY         0.00000   0.00000   0.00000   0.00041
 185        3PZ         0.00000   0.00000  -0.00000   0.00000   0.00021
 186 18  H  1S         -0.00001  -0.00069  -0.00000   0.00000  -0.00000
 187        2S         -0.00069  -0.00284  -0.00000  -0.00000  -0.00004
 188        3PX         0.00000   0.00000   0.00000   0.00000   0.00000
 189        3PY        -0.00000   0.00000   0.00000  -0.00000   0.00000
 190        3PZ        -0.00000  -0.00004   0.00000   0.00000   0.00000
                         186       187       188       189       190
 186 18  H  1S          0.21548
 187        2S          0.10507   0.13193
 188        3PX         0.00000   0.00000   0.00020
 189        3PY         0.00000   0.00000   0.00000   0.00041
 190        3PZ         0.00000   0.00000   0.00000   0.00000   0.00021
     Gross orbital populations:
                           1
   1 1   C  1S          1.99273
   2        2S          0.69479
   3        2PX         0.55990
   4        2PY         0.75565
   5        2PZ         0.73867
   6        3S          0.50804
   7        3PX         0.43441
   8        3PY         0.18681
   9        3PZ         0.26771
  10        4XX        -0.01918
  11        4YY         0.00822
  12        4ZZ         0.00817
  13        4XY         0.00669
  14        4XZ         0.00215
  15        4YZ         0.01041
  16 2   C  1S          1.99274
  17        2S          0.69390
  18        2PX         0.55668
  19        2PY         0.75097
  20        2PZ         0.74504
  21        3S          0.52150
  22        3PX         0.43386
  23        3PY         0.24463
  24        3PZ         0.18644
  25        4XX        -0.01930
  26        4YY         0.00731
  27        4ZZ         0.00674
  28        4XY         0.00352
  29        4XZ         0.00536
  30        4YZ         0.01250
  31 3   C  1S          1.99274
  32        2S          0.69390
  33        2PX         0.55668
  34        2PY         0.75097
  35        2PZ         0.74504
  36        3S          0.52150
  37        3PX         0.43386
  38        3PY         0.24463
  39        3PZ         0.18644
  40        4XX        -0.01930
  41        4YY         0.00731
  42        4ZZ         0.00674
  43        4XY         0.00352
  44        4XZ         0.00536
  45        4YZ         0.01250
  46 4   C  1S          1.99273
  47        2S          0.69479
  48        2PX         0.55990
  49        2PY         0.75565
  50        2PZ         0.73867
  51        3S          0.50804
  52        3PX         0.43441
  53        3PY         0.18681
  54        3PZ         0.26771
  55        4XX        -0.01918
  56        4YY         0.00822
  57        4ZZ         0.00817
  58        4XY         0.00669
  59        4XZ         0.00215
  60        4YZ         0.01041
  61 5   C  1S          1.99275
  62        2S          0.69563
  63        2PX         0.56493
  64        2PY         0.75664
  65        2PZ         0.74607
  66        3S          0.45519
  67        3PX         0.40665
  68        3PY         0.14481
  69        3PZ         0.15766
  70        4XX        -0.01861
  71        4YY         0.01063
  72        4ZZ         0.00879
  73        4XY         0.00679
  74        4XZ         0.00545
  75        4YZ         0.01296
  76 6   C  1S          1.99275
  77        2S          0.69563
  78        2PX         0.56493
  79        2PY         0.75664
  80        2PZ         0.74607
  81        3S          0.45519
  82        3PX         0.40665
  83        3PY         0.14481
  84        3PZ         0.15766
  85        4XX        -0.01861
  86        4YY         0.01063
  87        4ZZ         0.00879
  88        4XY         0.00679
  89        4XZ         0.00545
  90        4YZ         0.01296
  91 7   C  1S          1.99273
  92        2S          0.69479
  93        2PX         0.55990
  94        2PY         0.75565
  95        2PZ         0.73867
  96        3S          0.50804
  97        3PX         0.43441
  98        3PY         0.18681
  99        3PZ         0.26771
 100        4XX        -0.01918
 101        4YY         0.00822
 102        4ZZ         0.00817
 103        4XY         0.00669
 104        4XZ         0.00215
 105        4YZ         0.01041
 106 8   C  1S          1.99273
 107        2S          0.69479
 108        2PX         0.55990
 109        2PY         0.75565
 110        2PZ         0.73867
 111        3S          0.50804
 112        3PX         0.43441
 113        3PY         0.18681
 114        3PZ         0.26771
 115        4XX        -0.01918
 116        4YY         0.00822
 117        4ZZ         0.00817
 118        4XY         0.00669
 119        4XZ         0.00215
 120        4YZ         0.01041
 121 9   C  1S          1.99274
 122        2S          0.69390
 123        2PX         0.55668
 124        2PY         0.75097
 125        2PZ         0.74504
 126        3S          0.52150
 127        3PX         0.43386
 128        3PY         0.24463
 129        3PZ         0.18644
 130        4XX        -0.01930
 131        4YY         0.00731
 132        4ZZ         0.00674
 133        4XY         0.00352
 134        4XZ         0.00536
 135        4YZ         0.01250
 136 10  C  1S          1.99274
 137        2S          0.69390
 138        2PX         0.55668
 139        2PY         0.75097
 140        2PZ         0.74504
 141        3S          0.52150
 142        3PX         0.43386
 143        3PY         0.24463
 144        3PZ         0.18644
 145        4XX        -0.01930
 146        4YY         0.00731
 147        4ZZ         0.00674
 148        4XY         0.00352
 149        4XZ         0.00536
 150        4YZ         0.01250
 151 11  H  1S          0.52872
 152        2S          0.32428
 153        3PX         0.00277
 154        3PY         0.00188
 155        3PZ         0.00803
 156 12  H  1S          0.52936
 157        2S          0.32204
 158        3PX         0.00275
 159        3PY         0.00651
 160        3PZ         0.00341
 161 13  H  1S          0.52936
 162        2S          0.32204
 163        3PX         0.00275
 164        3PY         0.00651
 165        3PZ         0.00341
 166 14  H  1S          0.52872
 167        2S          0.32428
 168        3PX         0.00277
 169        3PY         0.00188
 170        3PZ         0.00803
 171 15  H  1S          0.52872
 172        2S          0.32428
 173        3PX         0.00277
 174        3PY         0.00188
 175        3PZ         0.00803
 176 16  H  1S          0.52872
 177        2S          0.32428
 178        3PX         0.00277
 179        3PY         0.00188
 180        3PZ         0.00803
 181 17  H  1S          0.52936
 182        2S          0.32204
 183        3PX         0.00275
 184        3PY         0.00651
 185        3PZ         0.00341
 186 18  H  1S          0.52936
 187        2S          0.32204
 188        3PX         0.00275
 189        3PY         0.00651
 190        3PZ         0.00341
          Condensed to atoms (all electrons):
               1          2          3          4          5          6
     1  C    4.992703   0.537368  -0.036202  -0.059146  -0.038247   0.476892
     2  C    0.537368   4.884020   0.503539  -0.036202  -0.033955  -0.025069
     3  C   -0.036202   0.503539   4.884020   0.537368  -0.025069  -0.033955
     4  C   -0.059146  -0.036202   0.537368   4.992703   0.476892  -0.038247
     5  C   -0.038247  -0.033955  -0.025069   0.476892   4.717011   0.532039
     6  C    0.476892  -0.025069  -0.033955  -0.038247   0.532039   4.717011
     7  C   -0.077664   0.007242  -0.000441   0.012097  -0.038247   0.476892
     8  C    0.012097  -0.000441   0.007242  -0.077664   0.476892  -0.038247
     9  C   -0.000441   0.000069  -0.000378   0.007242  -0.025069  -0.033955
    10  C    0.007242  -0.000378   0.000069  -0.000441  -0.033955  -0.025069
    11  H    0.375307  -0.038383   0.004012   0.000491   0.004026  -0.038589
    12  H   -0.032080   0.376420  -0.036533   0.003749   0.000924   0.002672
    13  H    0.003749  -0.036533   0.376420  -0.032080   0.002672   0.000924
    14  H    0.000491   0.004012  -0.038383   0.375307  -0.038589   0.004026
    15  H   -0.006541   0.000166   0.000014  -0.000178   0.004026  -0.038589
    16  H   -0.000178   0.000014   0.000166  -0.006541  -0.038589   0.004026
    17  H    0.000009  -0.000000   0.000003  -0.000181   0.002672   0.000924
    18  H   -0.000181   0.000003  -0.000000   0.000009   0.000924   0.002672
               7          8          9         10         11         12
     1  C   -0.077664   0.012097  -0.000441   0.007242   0.375307  -0.032080
     2  C    0.007242  -0.000441   0.000069  -0.000378  -0.038383   0.376420
     3  C   -0.000441   0.007242  -0.000378   0.000069   0.004012  -0.036533
     4  C    0.012097  -0.077664   0.007242  -0.000441   0.000491   0.003749
     5  C   -0.038247   0.476892  -0.025069  -0.033955   0.004026   0.000924
     6  C    0.476892  -0.038247  -0.033955  -0.025069  -0.038589   0.002672
     7  C    4.992703  -0.059146  -0.036202   0.537368  -0.006541  -0.000181
     8  C   -0.059146   4.992703   0.537368  -0.036202  -0.000178   0.000009
     9  C   -0.036202   0.537368   4.884020   0.503539   0.000014  -0.000000
    10  C    0.537368  -0.036202   0.503539   4.884020   0.000166   0.000003
    11  H   -0.006541  -0.000178   0.000014   0.000166   0.564908  -0.004789
    12  H   -0.000181   0.000009  -0.000000   0.000003  -0.004789   0.558374
    13  H    0.000009  -0.000181   0.000003  -0.000000  -0.000168  -0.004318
    14  H   -0.000178  -0.006541   0.000166   0.000014   0.000018  -0.000168
    15  H    0.375307   0.000491   0.004012  -0.038383   0.005394  -0.000010
    16  H    0.000491   0.375307  -0.038383   0.004012   0.000002  -0.000000
    17  H    0.003749  -0.032080   0.376420  -0.036533  -0.000000   0.000000
    18  H   -0.032080   0.003749  -0.036533   0.376420  -0.000010  -0.000000
              13         14         15         16         17         18
     1  C    0.003749   0.000491  -0.006541  -0.000178   0.000009  -0.000181
     2  C   -0.036533   0.004012   0.000166   0.000014  -0.000000   0.000003
     3  C    0.376420  -0.038383   0.000014   0.000166   0.000003  -0.000000
     4  C   -0.032080   0.375307  -0.000178  -0.006541  -0.000181   0.000009
     5  C    0.002672  -0.038589   0.004026  -0.038589   0.002672   0.000924
     6  C    0.000924   0.004026  -0.038589   0.004026   0.000924   0.002672
     7  C    0.000009  -0.000178   0.375307   0.000491   0.003749  -0.032080
     8  C   -0.000181  -0.006541   0.000491   0.375307  -0.032080   0.003749
     9  C    0.000003   0.000166   0.004012  -0.038383   0.376420  -0.036533
    10  C   -0.000000   0.000014  -0.038383   0.004012  -0.036533   0.376420
    11  H   -0.000168   0.000018   0.005394   0.000002  -0.000000  -0.000010
    12  H   -0.004318  -0.000168  -0.000010  -0.000000   0.000000  -0.000000
    13  H    0.558374  -0.004789  -0.000000  -0.000010  -0.000000   0.000000
    14  H   -0.004789   0.564908   0.000002   0.005394  -0.000010  -0.000000
    15  H   -0.000000   0.000002   0.564908   0.000018  -0.000168  -0.004789
    16  H   -0.000010   0.005394   0.000018   0.564908  -0.004789  -0.000168
    17  H   -0.000000  -0.000010  -0.000168  -0.004789   0.558374  -0.004318
    18  H    0.000000  -0.000000  -0.004789  -0.000168  -0.004318   0.558374
 Mulliken charges:
               1
     1  C   -0.155178
     2  C   -0.141891
     3  C   -0.141891
     4  C   -0.155178
     5  C    0.053639
     6  C    0.053639
     7  C   -0.155178
     8  C   -0.155178
     9  C   -0.141891
    10  C   -0.141891
    11  H    0.134321
    12  H    0.135929
    13  H    0.135929
    14  H    0.134321
    15  H    0.134321
    16  H    0.134321
    17  H    0.135929
    18  H    0.135929
 Sum of Mulliken charges =  -0.00000
 Mulliken charges with hydrogens summed into heavy atoms:
               1
     1  C   -0.020857
     2  C   -0.005962
     3  C   -0.005962
     4  C   -0.020857
     5  C    0.053639
     6  C    0.053639
     7  C   -0.020857
     8  C   -0.020857
     9  C   -0.005962
    10  C   -0.005962
 Electronic spatial extent (au):  <R**2>=           1283.1501
 Charge=             -0.0000 electrons
 Dipole moment (field-independent basis, Debye):
    X=             -0.0000    Y=             -0.0000    Z=              0.0000  Tot=              0.0000
 Quadrupole moment (field-independent basis, Debye-Ang):
   XX=            -62.5899   YY=            -49.1771   ZZ=            -49.6096
   XY=              0.0000   XZ=             -0.0000   YZ=              0.0000
 Traceless Quadrupole moment (field-independent basis, Debye-Ang):
   XX=             -8.7977   YY=              4.6151   ZZ=              4.1826
   XY=              0.0000   XZ=             -0.0000   YZ=              0.0000
 Octapole moment (field-independent basis, Debye-Ang**2):
  XXX=              0.0000  YYY=             -0.0000  ZZZ=              0.0000  XYY=              0.0000
  XXY=             -0.0000  XXZ=              0.0000  XZZ=              0.0000  YZZ=             -0.0000
  YYZ=             -0.0000  XYZ=             -0.0000
 Hexadecapole moment (field-independent basis, Debye-Ang**3):
 XXXX=            -65.2321 YYYY=          -1041.0567 ZZZZ=           -461.6770 XXXY=             -0.0000
 XXXZ=              0.0000 YYYX=             -0.0000 YYYZ=              0.0000 ZZZX=              0.0000
 ZZZY=              0.0000 XXYY=           -230.2241 XXZZ=           -106.8667 YYZZ=           -255.4221
 XXYZ=             -0.0000 YYXZ=              0.0000 ZZXY=             -0.0000
 N-N= 4.584145273344D+02 E-N=-1.809898201494D+03  KE= 3.820333909680D+02
 Symmetry AG   KE= 1.121118271861D+02
 Symmetry B1G  KE= 1.964165425024D+00
 Symmetry B2G  KE= 2.137469122405D+00
 Symmetry B3G  KE= 7.536105415365D+01
 Symmetry AU   KE= 2.341945914174D+00
 Symmetry B1U  KE= 1.067433413490D+02
 Symmetry B2U  KE= 7.730390918837D+01
 Symmetry B3U  KE= 4.069678629313D+00
 Orbital energies and kinetic energies (alpha):
                                 1                 2
  30         (B1G)--O         -0.340159          0.982083
  31         (AG)--O          -0.337649          1.418688
  32         (B2G)--O         -0.296740          1.068735
  33         (B3U)--O         -0.253885          1.138052
  34         (AU)--O          -0.225301          1.170973
  35         (B1G)--V         -0.033972          1.320245
  36         (B2G)--V         -0.003713          1.376067
  37         (B3U)--V          0.039000          1.366872
  38         (AG)--V           0.107044          0.923896
  39         (AU)--V           0.109045          1.539842
 Total kinetic energy from orbitals= 3.820333909680D+02
 No NMR shielding tensors so no spin-rotation constants.
 Leave Link  601 at Tue Jun 21 17:25:45 2022, MaxMem=  2684354560 cpu:               2.4 elap:               0.4
 (Enter /gpfs1/apps/software/Gaussian16/AVX/g16/l9999.exe)
 Unable to Open any file for archive entry.
 1\1\GINC-KENNEDY41\SP\RPBE1PBE\6-31G(d,p)\C10H8\OSL\21-Jun-2022\0\\#p 
 PBE1PBE/6-31G(d,p) SCRF=(Solvent=Toluene) EmpiricalDispersion=(GD3BJ) 
 Symmetry=(Tight) Population=(Regular) Density=(Current)\\Naphthalene_S
 ingle_Point__Singlet__PBE1PBE__GD3BJ__Toluene_6_31G_d_p_\\0,1\C,0,-1.2
 4046,-1.39914,0.\C,0,-2.426,-0.70664,0.\C,0,-2.426,0.70664,0.\C,0,-1.2
 4046,1.39914,0.\C,0,0.,0.71423,0.\C,0,0.,-0.71423,0.\C,0,1.24046,-1.39
 914,0.\C,0,1.24046,1.39914,0.\C,0,2.426,0.70664,0.\C,0,2.426,-0.70664,
 0.\H,0,-1.2367,-2.4862,0.\H,0,-3.3697,-1.24397,0.\H,0,-3.3697,1.24397,
 0.\H,0,-1.2367,2.4862,0.\H,0,1.2367,-2.4862,0.\H,0,1.2367,2.4862,0.\H,
 0,3.3697,1.24397,0.\H,0,3.3697,-1.24397,0.\\Version=ES64L-G16RevC.01\S
 tate=1-AG\HF=-385.463302\RMSD=7.529e-09\Dipole=0.,0.,0.\Quadrupole=3.4
 312379,3.1096499,-6.5408879,0.,0.,0.\PG=D02H [C2"(C1.C1),SG(C8H8)]\\@
 The archive entry for this job was punched.


 I WANT IT ALL - RICH, THIN, AND CHOCOLATE.
 Job cpu time:       0 days  0 hours  1 minutes 18.5 seconds.
 Elapsed time:       0 days  0 hours  0 minutes 10.4 seconds.
 File lengths (MBytes):  RWF=     68 Int=      0 D2E=      0 Chk=      4 Scr=      2
 Normal termination of Gaussian 16 at Tue Jun 21 17:25:47 2022.
