Naphthalene_Single_Point__Singlet__PBE1PBE__GD3BJ__Toluene_6_31G_d_p_   
SP        RPBE1PBE                                                    6-31G(d,p)          
Number of atoms                            I               18
Info1-9                                    I   N=           9
          28          28           0           0           0         110
           1          18       -1302
Full Title                                 C   N=           6
Naphthalene_Single_Point__Singlet__PBE1PBE__GD3BJ__Toluene_6
_31G_d_p_   
Route                                      C   N=          11
#p PBE1PBE/6-31G(d,p) SCRF=(Solvent=Toluene) EmpiricalDisper
sion=(GD3BJ) Symmetry=(Tight) Population=(Regular) Density=(
Current)    
Charge                                     I                0
Multiplicity                               I                1
Number of electrons                        I               68
Number of alpha electrons                  I               34
Number of beta electrons                   I               34
Number of basis functions                  I              190
Number of independent functions            I              190
Number of point charges in /Mol/           I                0
Number of translation vectors              I                0
Atomic numbers                             I   N=          18
           6           6           6           6           6           6
           6           6           6           6           1           1
           1           1           1           1           1           1
Nuclear charges                            R   N=          18
  6.00000000E+00  6.00000000E+00  6.00000000E+00  6.00000000E+00  6.00000000E+00
  6.00000000E+00  6.00000000E+00  6.00000000E+00  6.00000000E+00  6.00000000E+00
  1.00000000E+00  1.00000000E+00  1.00000000E+00  1.00000000E+00  1.00000000E+00
  1.00000000E+00  1.00000000E+00  1.00000000E+00
Current cartesian coordinates              R   N=          54
 -2.46519033E-32  2.34412967E+00  2.64399141E+00  0.00000000E+00  4.58447558E+00
  1.33535607E+00  1.63533954E-16  4.58447558E+00 -1.33535607E+00  3.23795562E-16
  2.34412967E+00 -2.64399141E+00 -2.05268330E-48  3.09869994E-49 -1.34969909E+00
 -1.65290467E-16  1.01211221E-32  1.34969909E+00 -2.87073090E-16 -2.34412967E+00
  2.64399141E+00 -2.87073090E-16 -2.34412967E+00 -2.64399141E+00 -5.61436334E-16
 -4.58447558E+00 -1.33535607E+00 -5.61436334E-16 -4.58447558E+00  1.33535607E+00
  0.00000000E+00  2.33702430E+00  4.69823709E+00 -4.93038066E-32  6.36781012E+00
  2.35076261E+00  2.87885390E-16  6.36781012E+00 -2.35076261E+00  5.75368101E-16
  2.33702430E+00 -4.69823709E+00 -2.86202933E-16 -2.33702430E+00  4.69823709E+00
 -2.86202933E-16 -2.33702430E+00 -4.69823709E+00 -7.79831828E-16 -6.36781012E+00
 -2.35076261E+00 -7.79831828E-16 -6.36781012E+00  2.35076261E+00
Number of symbols in /Mol/                 I                0
Int Atom Types                             I   N=          18
           0           0           0           0           0           0
           0           0           0           0           0           0
           0           0           0           0           0           0
Force Field                                I                0
Atom Types                                 C   N=          18
                                                            
                                                            
                                                            
                                    
MM charges                                 R   N=          18
  0.00000000E+00  0.00000000E+00  0.00000000E+00  0.00000000E+00  0.00000000E+00
  0.00000000E+00  0.00000000E+00  0.00000000E+00  0.00000000E+00  0.00000000E+00
  0.00000000E+00  0.00000000E+00  0.00000000E+00  0.00000000E+00  0.00000000E+00
  0.00000000E+00  0.00000000E+00  0.00000000E+00
Integer atomic weights                     I   N=          18
          12          12          12          12          12          12
          12          12          12          12           1           1
           1           1           1           1           1           1
Real atomic weights                        R   N=          18
  1.20000000E+01  1.20000000E+01  1.20000000E+01  1.20000000E+01  1.20000000E+01
  1.20000000E+01  1.20000000E+01  1.20000000E+01  1.20000000E+01  1.20000000E+01
  1.00782504E+00  1.00782504E+00  1.00782504E+00  1.00782504E+00  1.00782504E+00
  1.00782504E+00  1.00782504E+00  1.00782504E+00
Atom fragment info                         I   N=          18
           0           0           0           0           0           0
           0           0           0           0           0           0
           0           0           0           0           0           0
Atom residue num                           I   N=          18
           0           0           0           0           0           0
           0           0           0           0           0           0
           0           0           0           0           0           0
Nuclear spins                              I   N=          18
           0           0           0           0           0           0
           0           0           0           0           1           1
           1           1           1           1           1           1
Nuclear ZEff                               R   N=          18
 -3.60000000E+00 -3.60000000E+00 -3.60000000E+00 -3.60000000E+00 -3.60000000E+00
 -3.60000000E+00 -3.60000000E+00 -3.60000000E+00 -3.60000000E+00 -3.60000000E+00
 -1.00000000E+00 -1.00000000E+00 -1.00000000E+00 -1.00000000E+00 -1.00000000E+00
 -1.00000000E+00 -1.00000000E+00 -1.00000000E+00
Nuclear ZNuc                               R   N=          18
  6.00000000E+00  6.00000000E+00  6.00000000E+00  6.00000000E+00  6.00000000E+00
  6.00000000E+00  6.00000000E+00  6.00000000E+00  6.00000000E+00  6.00000000E+00
  1.00000000E+00  1.00000000E+00  1.00000000E+00  1.00000000E+00  1.00000000E+00
  1.00000000E+00  1.00000000E+00  1.00000000E+00
Nuclear QMom                               R   N=          18
  0.00000000E+00  0.00000000E+00  0.00000000E+00  0.00000000E+00  0.00000000E+00
  0.00000000E+00  0.00000000E+00  0.00000000E+00  0.00000000E+00  0.00000000E+00
  0.00000000E+00  0.00000000E+00  0.00000000E+00  0.00000000E+00  0.00000000E+00
  0.00000000E+00  0.00000000E+00  0.00000000E+00
Nuclear GFac                               R   N=          18
  0.00000000E+00  0.00000000E+00  0.00000000E+00  0.00000000E+00  0.00000000E+00
  0.00000000E+00  0.00000000E+00  0.00000000E+00  0.00000000E+00  0.00000000E+00
  2.79284600E+00  2.79284600E+00  2.79284600E+00  2.79284600E+00  2.79284600E+00
  2.79284600E+00  2.79284600E+00  2.79284600E+00
MicOpt                                     I   N=          18
          -1          -1          -1          -1          -1          -1
          -1          -1          -1          -1          -1          -1
          -1          -1          -1          -1          -1          -1
Number of residues                         I                0
Number of secondary structures             I                0
SymInf integers                            I   N=          26
           4           8           1           1           1          -1
          -1           1          -1           1          -1           1
          -1          -1          -1           1           1           1
          -1           1           1           1          -1          -1
          -1          -1
RotTr to input orientation                 R   N=          12
 -6.12323400E-17  1.49975978E-32  1.00000000E+00 -1.00000000E+00  1.83697020E-16
 -6.12323400E-17 -1.83697020E-16 -1.00000000E+00  3.74939946E-33  0.00000000E+00
 -5.22457894E-17  0.00000000E+00
Number of contracted shells                I               64
Number of primitive shells                 I              150
Pure/Cartesian d shells                    I                1
Pure/Cartesian f shells                    I                0
Highest angular momentum                   I                2
Largest degree of contraction              I                6
Shell types                                I   N=          64
           0          -1          -1           2           0          -1
          -1           2           0          -1          -1           2
           0          -1          -1           2           0          -1
          -1           2           0          -1          -1           2
           0          -1          -1           2           0          -1
          -1           2           0          -1          -1           2
           0          -1          -1           2           0           0
           1           0           0           1           0           0
           1           0           0           1           0           0
           1           0           0           1           0           0
           1           0           0           1
Number of primitives per shell             I   N=          64
           6           3           1           1           6           3
           1           1           6           3           1           1
           6           3           1           1           6           3
           1           1           6           3           1           1
           6           3           1           1           6           3
           1           1           6           3           1           1
           6           3           1           1           3           1
           1           3           1           1           3           1
           1           3           1           1           3           1
           1           3           1           1           3           1
           1           3           1           1
Shell to atom map                          I   N=          64
           1           1           1           1           2           2
           2           2           3           3           3           3
           4           4           4           4           5           5
           5           5           6           6           6           6
           7           7           7           7           8           8
           8           8           9           9           9           9
          10          10          10          10          11          11
          11          12          12          12          13          13
          13          14          14          14          15          15
          15          16          16          16          17          17
          17          18          18          18
Primitive exponents                        R   N=         150
  3.04752488E+03  4.57369518E+02  1.03948685E+02  2.92101553E+01  9.28666296E+00
  3.16392696E+00  7.86827235E+00  1.88128854E+00  5.44249258E-01  1.68714478E-01
  8.00000000E-01  3.04752488E+03  4.57369518E+02  1.03948685E+02  2.92101553E+01
  9.28666296E+00  3.16392696E+00  7.86827235E+00  1.88128854E+00  5.44249258E-01
  1.68714478E-01  8.00000000E-01  3.04752488E+03  4.57369518E+02  1.03948685E+02
  2.92101553E+01  9.28666296E+00  3.16392696E+00  7.86827235E+00  1.88128854E+00
  5.44249258E-01  1.68714478E-01  8.00000000E-01  3.04752488E+03  4.57369518E+02
  1.03948685E+02  2.92101553E+01  9.28666296E+00  3.16392696E+00  7.86827235E+00
  1.88128854E+00  5.44249258E-01  1.68714478E-01  8.00000000E-01  3.04752488E+03
  4.57369518E+02  1.03948685E+02  2.92101553E+01  9.28666296E+00  3.16392696E+00
  7.86827235E+00  1.88128854E+00  5.44249258E-01  1.68714478E-01  8.00000000E-01
  3.04752488E+03  4.57369518E+02  1.03948685E+02  2.92101553E+01  9.28666296E+00
  3.16392696E+00  7.86827235E+00  1.88128854E+00  5.44249258E-01  1.68714478E-01
  8.00000000E-01  3.04752488E+03  4.57369518E+02  1.03948685E+02  2.92101553E+01
  9.28666296E+00  3.16392696E+00  7.86827235E+00  1.88128854E+00  5.44249258E-01
  1.68714478E-01  8.00000000E-01  3.04752488E+03  4.57369518E+02  1.03948685E+02
  2.92101553E+01  9.28666296E+00  3.16392696E+00  7.86827235E+00  1.88128854E+00
  5.44249258E-01  1.68714478E-01  8.00000000E-01  3.04752488E+03  4.57369518E+02
  1.03948685E+02  2.92101553E+01  9.28666296E+00  3.16392696E+00  7.86827235E+00
  1.88128854E+00  5.44249258E-01  1.68714478E-01  8.00000000E-01  3.04752488E+03
  4.57369518E+02  1.03948685E+02  2.92101553E+01  9.28666296E+00  3.16392696E+00
  7.86827235E+00  1.88128854E+00  5.44249258E-01  1.68714478E-01  8.00000000E-01
  1.87311370E+01  2.82539436E+00  6.40121692E-01  1.61277759E-01  1.10000000E+00
  1.87311370E+01  2.82539436E+00  6.40121692E-01  1.61277759E-01  1.10000000E+00
  1.87311370E+01  2.82539436E+00  6.40121692E-01  1.61277759E-01  1.10000000E+00
  1.87311370E+01  2.82539436E+00  6.40121692E-01  1.61277759E-01  1.10000000E+00
  1.87311370E+01  2.82539436E+00  6.40121692E-01  1.61277759E-01  1.10000000E+00
  1.87311370E+01  2.82539436E+00  6.40121692E-01  1.61277759E-01  1.10000000E+00
  1.87311370E+01  2.82539436E+00  6.40121692E-01  1.61277759E-01  1.10000000E+00
  1.87311370E+01  2.82539436E+00  6.40121692E-01  1.61277759E-01  1.10000000E+00
Contraction coefficients                   R   N=         150
  1.83473713E-03  1.40373228E-02  6.88426223E-02  2.32184443E-01  4.67941348E-01
  3.62311985E-01 -1.19332420E-01 -1.60854152E-01  1.14345644E+00  1.00000000E+00
  1.00000000E+00  1.83473713E-03  1.40373228E-02  6.88426223E-02  2.32184443E-01
  4.67941348E-01  3.62311985E-01 -1.19332420E-01 -1.60854152E-01  1.14345644E+00
  1.00000000E+00  1.00000000E+00  1.83473713E-03  1.40373228E-02  6.88426223E-02
  2.32184443E-01  4.67941348E-01  3.62311985E-01 -1.19332420E-01 -1.60854152E-01
  1.14345644E+00  1.00000000E+00  1.00000000E+00  1.83473713E-03  1.40373228E-02
  6.88426223E-02  2.32184443E-01  4.67941348E-01  3.62311985E-01 -1.19332420E-01
 -1.60854152E-01  1.14345644E+00  1.00000000E+00  1.00000000E+00  1.83473713E-03
  1.40373228E-02  6.88426223E-02  2.32184443E-01  4.67941348E-01  3.62311985E-01
 -1.19332420E-01 -1.60854152E-01  1.14345644E+00  1.00000000E+00  1.00000000E+00
  1.83473713E-03  1.40373228E-02  6.88426223E-02  2.32184443E-01  4.67941348E-01
  3.62311985E-01 -1.19332420E-01 -1.60854152E-01  1.14345644E+00  1.00000000E+00
  1.00000000E+00  1.83473713E-03  1.40373228E-02  6.88426223E-02  2.32184443E-01
  4.67941348E-01  3.62311985E-01 -1.19332420E-01 -1.60854152E-01  1.14345644E+00
  1.00000000E+00  1.00000000E+00  1.83473713E-03  1.40373228E-02  6.88426223E-02
  2.32184443E-01  4.67941348E-01  3.62311985E-01 -1.19332420E-01 -1.60854152E-01
  1.14345644E+00  1.00000000E+00  1.00000000E+00  1.83473713E-03  1.40373228E-02
  6.88426223E-02  2.32184443E-01  4.67941348E-01  3.62311985E-01 -1.19332420E-01
 -1.60854152E-01  1.14345644E+00  1.00000000E+00  1.00000000E+00  1.83473713E-03
  1.40373228E-02  6.88426223E-02  2.32184443E-01  4.67941348E-01  3.62311985E-01
 -1.19332420E-01 -1.60854152E-01  1.14345644E+00  1.00000000E+00  1.00000000E+00
  3.34946043E-02  2.34726953E-01  8.13757326E-01  1.00000000E+00  1.00000000E+00
  3.34946043E-02  2.34726953E-01  8.13757326E-01  1.00000000E+00  1.00000000E+00
  3.34946043E-02  2.34726953E-01  8.13757326E-01  1.00000000E+00  1.00000000E+00
  3.34946043E-02  2.34726953E-01  8.13757326E-01  1.00000000E+00  1.00000000E+00
  3.34946043E-02  2.34726953E-01  8.13757326E-01  1.00000000E+00  1.00000000E+00
  3.34946043E-02  2.34726953E-01  8.13757326E-01  1.00000000E+00  1.00000000E+00
  3.34946043E-02  2.34726953E-01  8.13757326E-01  1.00000000E+00  1.00000000E+00
  3.34946043E-02  2.34726953E-01  8.13757326E-01  1.00000000E+00  1.00000000E+00
P(S=P) Contraction coefficients            R   N=         150
  0.00000000E+00  0.00000000E+00  0.00000000E+00  0.00000000E+00  0.00000000E+00
  0.00000000E+00  6.89990666E-02  3.16423961E-01  7.44308291E-01  1.00000000E+00
  0.00000000E+00  0.00000000E+00  0.00000000E+00  0.00000000E+00  0.00000000E+00
  0.00000000E+00  0.00000000E+00  6.89990666E-02  3.16423961E-01  7.44308291E-01
  1.00000000E+00  0.00000000E+00  0.00000000E+00  0.00000000E+00  0.00000000E+00
  0.00000000E+00  0.00000000E+00  0.00000000E+00  6.89990666E-02  3.16423961E-01
  7.44308291E-01  1.00000000E+00  0.00000000E+00  0.00000000E+00  0.00000000E+00
  0.00000000E+00  0.00000000E+00  0.00000000E+00  0.00000000E+00  6.89990666E-02
  3.16423961E-01  7.44308291E-01  1.00000000E+00  0.00000000E+00  0.00000000E+00
  0.00000000E+00  0.00000000E+00  0.00000000E+00  0.00000000E+00  0.00000000E+00
  6.89990666E-02  3.16423961E-01  7.44308291E-01  1.00000000E+00  0.00000000E+00
  0.00000000E+00  0.00000000E+00  0.00000000E+00  0.00000000E+00  0.00000000E+00
  0.00000000E+00  6.89990666E-02  3.16423961E-01  7.44308291E-01  1.00000000E+00
  0.00000000E+00  0.00000000E+00  0.00000000E+00  0.00000000E+00  0.00000000E+00
  0.00000000E+00  0.00000000E+00  6.89990666E-02  3.16423961E-01  7.44308291E-01
  1.00000000E+00  0.00000000E+00  0.00000000E+00  0.00000000E+00  0.00000000E+00
  0.00000000E+00  0.00000000E+00  0.00000000E+00  6.89990666E-02  3.16423961E-01
  7.44308291E-01  1.00000000E+00  0.00000000E+00  0.00000000E+00  0.00000000E+00
  0.00000000E+00  0.00000000E+00  0.00000000E+00  0.00000000E+00  6.89990666E-02
  3.16423961E-01  7.44308291E-01  1.00000000E+00  0.00000000E+00  0.00000000E+00
  0.00000000E+00  0.00000000E+00  0.00000000E+00  0.00000000E+00  0.00000000E+00
  6.89990666E-02  3.16423961E-01  7.44308291E-01  1.00000000E+00  0.00000000E+00
  0.00000000E+00  0.00000000E+00  0.00000000E+00  0.00000000E+00  0.00000000E+00
  0.00000000E+00  0.00000000E+00  0.00000000E+00  0.00000000E+00  0.00000000E+00
  0.00000000E+00  0.00000000E+00  0.00000000E+00  0.00000000E+00  0.00000000E+00
  0.00000000E+00  0.00000000E+00  0.00000000E+00  0.00000000E+00  0.00000000E+00
  0.00000000E+00  0.00000000E+00  0.00000000E+00  0.00000000E+00  0.00000000E+00
  0.00000000E+00  0.00000000E+00  0.00000000E+00  0.00000000E+00  0.00000000E+00
  0.00000000E+00  0.00000000E+00  0.00000000E+00  0.00000000E+00  0.00000000E+00
  0.00000000E+00  0.00000000E+00  0.00000000E+00  0.00000000E+00  0.00000000E+00
Coordinates of each shell                  R   N=         192
  0.00000000E+00  2.34412967E+00  2.64399141E+00  0.00000000E+00  2.34412967E+00
  2.64399141E+00  0.00000000E+00  2.34412967E+00  2.64399141E+00  0.00000000E+00
  2.34412967E+00  2.64399141E+00  0.00000000E+00  4.58447558E+00  1.33535607E+00
  0.00000000E+00  4.58447558E+00  1.33535607E+00  0.00000000E+00  4.58447558E+00
  1.33535607E+00  0.00000000E+00  4.58447558E+00  1.33535607E+00  1.63533954E-16
  4.58447558E+00 -1.33535607E+00  1.63533954E-16  4.58447558E+00 -1.33535607E+00
  1.63533954E-16  4.58447558E+00 -1.33535607E+00  1.63533954E-16  4.58447558E+00
 -1.33535607E+00  3.23795562E-16  2.34412967E+00 -2.64399141E+00  3.23795562E-16
  2.34412967E+00 -2.64399141E+00  3.23795562E-16  2.34412967E+00 -2.64399141E+00
  3.23795562E-16  2.34412967E+00 -2.64399141E+00 -1.84700319E-48  1.89911355E-65
 -1.34969909E+00 -1.84700319E-48  1.89911355E-65 -1.34969909E+00 -1.84700319E-48
  1.89911355E-65 -1.34969909E+00 -1.84700319E-48  1.89911355E-65 -1.34969909E+00
 -1.65290467E-16  3.09869994E-49  1.34969909E+00 -1.65290467E-16  3.09869994E-49
  1.34969909E+00 -1.65290467E-16  3.09869994E-49  1.34969909E+00 -1.65290467E-16
  3.09869994E-49  1.34969909E+00 -2.87073090E-16 -2.34412967E+00  2.64399141E+00
 -2.87073090E-16 -2.34412967E+00  2.64399141E+00 -2.87073090E-16 -2.34412967E+00
  2.64399141E+00 -2.87073090E-16 -2.34412967E+00  2.64399141E+00 -2.87073090E-16
 -2.34412967E+00 -2.64399141E+00 -2.87073090E-16 -2.34412967E+00 -2.64399141E+00
 -2.87073090E-16 -2.34412967E+00 -2.64399141E+00 -2.87073090E-16 -2.34412967E+00
 -2.64399141E+00 -5.61436334E-16 -4.58447558E+00 -1.33535607E+00 -5.61436334E-16
 -4.58447558E+00 -1.33535607E+00 -5.61436334E-16 -4.58447558E+00 -1.33535607E+00
 -5.61436334E-16 -4.58447558E+00 -1.33535607E+00 -5.61436334E-16 -4.58447558E+00
  1.33535607E+00 -5.61436334E-16 -4.58447558E+00  1.33535607E+00 -5.61436334E-16
 -4.58447558E+00  1.33535607E+00 -5.61436334E-16 -4.58447558E+00  1.33535607E+00
  0.00000000E+00  2.33702430E+00  4.69823709E+00  0.00000000E+00  2.33702430E+00
  4.69823709E+00  0.00000000E+00  2.33702430E+00  4.69823709E+00  0.00000000E+00
  6.36781012E+00  2.35076261E+00  0.00000000E+00  6.36781012E+00  2.35076261E+00
  0.00000000E+00  6.36781012E+00  2.35076261E+00  2.87885390E-16  6.36781012E+00
 -2.35076261E+00  2.87885390E-16  6.36781012E+00 -2.35076261E+00  2.87885390E-16
  6.36781012E+00 -2.35076261E+00  5.75368101E-16  2.33702430E+00 -4.69823709E+00
  5.75368101E-16  2.33702430E+00 -4.69823709E+00  5.75368101E-16  2.33702430E+00
 -4.69823709E+00 -2.86202933E-16 -2.33702430E+00  4.69823709E+00 -2.86202933E-16
 -2.33702430E+00  4.69823709E+00 -2.86202933E-16 -2.33702430E+00  4.69823709E+00
 -2.86202933E-16 -2.33702430E+00 -4.69823709E+00 -2.86202933E-16 -2.33702430E+00
 -4.69823709E+00 -2.86202933E-16 -2.33702430E+00 -4.69823709E+00 -7.79831828E-16
 -6.36781012E+00 -2.35076261E+00 -7.79831828E-16 -6.36781012E+00 -2.35076261E+00
 -7.79831828E-16 -6.36781012E+00 -2.35076261E+00 -7.79831828E-16 -6.36781012E+00
  2.35076261E+00 -7.79831828E-16 -6.36781012E+00  2.35076261E+00 -7.79831828E-16
 -6.36781012E+00  2.35076261E+00
Num ILSW                                   I              100
ILSW                                       I   N=         100
           0           1           0           0           2           0
           0           0           0           0        1009          -1
           5           0           0           0           0           0
           0           0           0           0           0           0
           1           0           0           0           0           0
           0           0      100000           0          -1           0
           0           0           0           0           0           0
           0           0           0           1           0           0
           0 -2000000000           1           0           0           0
           0           0         141          52           0           0
           0           0          13           0           0           0
           0           0           0          18           0           1
           0           0           0           0           0           0
           0           0           0           0           0           0
           0           0           0           0           0           0
           0           0           0           0           0           0
           0           0           0           0
Num RLSW                                   I               52
RLSW                                       R   N=          52
  7.50000000E-01  7.50000000E-01  1.00000000E+00  1.00000000E+00  2.50000000E-01
  0.00000000E+00  0.00000000E+00  1.00000000E+00  0.00000000E+00  0.00000000E+00
  0.00000000E+00  0.00000000E+00  1.00000000E+00  0.00000000E+00  0.00000000E+00
  0.00000000E+00  0.00000000E+00  1.00000000E+00  0.00000000E+00  0.00000000E+00
  0.00000000E+00  0.00000000E+00  1.00000000E+00  0.00000000E+00  0.00000000E+00
  0.00000000E+00  0.00000000E+00  1.00000000E+00  0.00000000E+00  0.00000000E+00
  0.00000000E+00  0.00000000E+00  1.00000000E+00  0.00000000E+00  0.00000000E+00
  0.00000000E+00  0.00000000E+00  0.00000000E+00  1.00000000E+00  1.00000000E+00
  0.00000000E+00  1.00000000E+00  0.00000000E+00  0.00000000E+00  0.00000000E+00
  0.00000000E+00  0.00000000E+00  0.00000000E+00  0.00000000E+00  0.00000000E+00
  0.00000000E+00  0.00000000E+00
MxBond                                     I                3
NBond                                      I   N=          18
           3           3           3           3           3           3
           3           3           3           3           1           1
           1           1           1           1           1           1
IBond                                      I   N=          54
           2           6          11           1           3          12
           2           4          13           3           5          14
           4           6           8           1           5           7
           6          10          15           5           9          16
           8          10          17           7           9          18
           1           0           0           2           0           0
           3           0           0           4           0           0
           7           0           0           8           0           0
           9           0           0          10           0           0
RBond                                      R   N=          54
  1.50000000E+00  1.50000000E+00  1.00000000E+00  1.50000000E+00  1.50000000E+00
  1.00000000E+00  1.50000000E+00  1.50000000E+00  1.00000000E+00  1.50000000E+00
  1.50000000E+00  1.00000000E+00  1.50000000E+00  1.50000000E+00  1.50000000E+00
  1.50000000E+00  1.50000000E+00  1.50000000E+00  1.50000000E+00  1.50000000E+00
  1.00000000E+00  1.50000000E+00  1.50000000E+00  1.00000000E+00  1.50000000E+00
  1.50000000E+00  1.00000000E+00  1.50000000E+00  1.50000000E+00  1.00000000E+00
  1.00000000E+00  0.00000000E+00  0.00000000E+00  1.00000000E+00  0.00000000E+00
  0.00000000E+00  1.00000000E+00  0.00000000E+00  0.00000000E+00  1.00000000E+00
  0.00000000E+00  0.00000000E+00  1.00000000E+00  0.00000000E+00  0.00000000E+00
  1.00000000E+00  0.00000000E+00  0.00000000E+00  1.00000000E+00  0.00000000E+00
  0.00000000E+00  1.00000000E+00  0.00000000E+00  0.00000000E+00
Virial Ratio                               R      2.008978039925082E+00
SCF Energy                                 R     -3.854633020048448E+02
Total Energy                               R     -3.854633020048448E+02
RMS Density                                R      7.528816400691072E-09
Job Status                                 I                1
Nuclear derivative order                   I                0
PCM-NSphere                                I               18
PCM-NGenSphere                             I               18
PCM-NOrd                                   I   N=          18
           1           2           3           4           5           6
           7           8           9          10          11          12
          13          14          15          16          17          18
PCM-SphereRadii                            R   N=          18
  4.00253442E+00  4.00253442E+00  4.00253442E+00  4.00253442E+00  4.00253442E+00
  4.00253442E+00  4.00253442E+00  4.00253442E+00  4.00253442E+00  4.00253442E+00
  2.99956228E+00  2.99956228E+00  2.99956228E+00  2.99956228E+00  2.99956228E+00
  2.99956228E+00  2.99956228E+00  2.99956228E+00
PCM-SphereLoc                              R   N=          54
 -2.46519033E-32  2.34412967E+00  2.64399141E+00  0.00000000E+00  4.58447558E+00
  1.33535607E+00  1.63533954E-16  4.58447558E+00 -1.33535607E+00  3.23795562E-16
  2.34412967E+00 -2.64399141E+00 -2.05268330E-48  3.09869994E-49 -1.34969909E+00
 -1.65290467E-16  1.01211221E-32  1.34969909E+00 -2.87073090E-16 -2.34412967E+00
  2.64399141E+00 -2.87073090E-16 -2.34412967E+00 -2.64399141E+00 -5.61436334E-16
 -4.58447558E+00 -1.33535607E+00 -5.61436334E-16 -4.58447558E+00  1.33535607E+00
  0.00000000E+00  2.33702430E+00  4.69823709E+00 -4.93038066E-32  6.36781012E+00
  2.35076261E+00  2.87885390E-16  6.36781012E+00 -2.35076261E+00  5.75368101E-16
  2.33702430E+00 -4.69823709E+00 -2.86202933E-16 -2.33702430E+00  4.69823709E+00
 -2.86202933E-16 -2.33702430E+00 -4.69823709E+00 -7.79831828E-16 -6.36781012E+00
 -2.35076261E+00 -7.79831828E-16 -6.36781012E+00  2.35076261E+00
External E-field                           R   N=          35
  0.00000000E+00  0.00000000E+00  0.00000000E+00  0.00000000E+00  0.00000000E+00
  0.00000000E+00  0.00000000E+00  0.00000000E+00  0.00000000E+00  0.00000000E+00
  0.00000000E+00  0.00000000E+00  0.00000000E+00  0.00000000E+00  0.00000000E+00
  0.00000000E+00  0.00000000E+00  0.00000000E+00  0.00000000E+00  0.00000000E+00
  0.00000000E+00  0.00000000E+00  0.00000000E+00  0.00000000E+00  0.00000000E+00
  0.00000000E+00  0.00000000E+00  0.00000000E+00  0.00000000E+00  0.00000000E+00
  0.00000000E+00  0.00000000E+00  0.00000000E+00  0.00000000E+00  0.00000000E+00
IOpCl                                      I                0
IROHF                                      I                0
Alpha Orbital Energies                     R   N=         190
 -1.02476936E+01 -1.02472262E+01 -1.02398760E+01 -1.02398716E+01 -1.02395783E+01
 -1.02395662E+01 -1.02390811E+01 -1.02390684E+01 -1.02388731E+01 -1.02388660E+01
 -8.99868734E-01 -8.44976504E-01 -7.96029294E-01 -7.62213445E-01 -7.39517238E-01
 -6.42931291E-01 -6.28382257E-01 -6.12400705E-01 -5.28117506E-01 -5.23352643E-01
 -5.06319211E-01 -4.58464178E-01 -4.52068460E-01 -4.26980039E-01 -4.26153156E-01
 -4.09251977E-01 -4.05248377E-01 -3.77340801E-01 -3.45560199E-01 -3.40159003E-01
 -3.37649326E-01 -2.96740231E-01 -2.53884633E-01 -2.25301134E-01 -3.39720253E-02
 -3.71288346E-03  3.90002137E-02  1.07044196E-01  1.09045419E-01  1.25710270E-01
  1.35652758E-01  1.81983409E-01  1.83864597E-01  1.89282486E-01  1.96561138E-01
  2.12961312E-01  2.23037144E-01  2.54123135E-01  2.90743338E-01  3.17501194E-01
  3.19245824E-01  3.33679493E-01  3.36162288E-01  3.71295687E-01  4.81401821E-01
  5.11891827E-01  5.29681514E-01  5.37348458E-01  5.37736128E-01  5.40339057E-01
  5.64926580E-01  5.67973583E-01  5.87934621E-01  6.00974970E-01  6.01128475E-01
  6.23917972E-01  6.28771445E-01  6.30395448E-01  6.33007951E-01  6.35149687E-01
  6.42729074E-01  6.44459474E-01  6.49652336E-01  6.93569978E-01  7.08413086E-01
  7.10266505E-01  7.76331494E-01  8.30448183E-01  8.34179316E-01  8.41339944E-01
  8.45099279E-01  8.48533753E-01  8.58813200E-01  8.65727072E-01  9.01321478E-01