12
/gpfs1/home/osl/test/Benzene/Gaussian 16 Optimisation Frequencies PBE1PBE (GD3BJ) Gas Phase 6-31G(d,p)/Output/Benzene.log	Energy: -145524.4698343
C         -1.43608        0.09642       -0.00001
C         -0.76790       -1.17297       -0.00003
C          0.60341       -1.26623        0.00004
C          1.43608       -0.09641       -0.00002
C          0.76790        1.17297       -0.00003
C         -0.60342        1.26623        0.00004
H         -2.52031        0.16915       -0.00011
H         -1.36221       -2.09012       -0.00004
H          1.06883       -2.25489        0.00014
H          2.52031       -0.16916       -0.00006
H          1.36220        2.09012       -0.00004
H         -1.06882        2.25489        0.00014
