 Entering Gaussian System, Link 0=g16
 Input=/gpfs1/home/osl/test/Naphthalene/Gaussian 16 Optimisation Frequencies PBE1PBE (GD3BJ) Toluene 6-31G(d,p)/Input/Naphthalene.com
 Output=/gpfs1/home/osl/test/Naphthalene/Gaussian 16 Optimisation Frequencies PBE1PBE (GD3BJ) Toluene 6-31G(d,p)/Output/Naphthalene.log
 Initial command:
 /gpfs1/apps/software/Gaussian16/AVX/g16/l1.exe "/scratch/tmp/osl/687614c7f9f34b499f3563bb118274a9/Gau-45987.inp" -scrdir="/scratch/tmp/osl/687614c7f9f34b499f3563bb118274a9/"
 Entering Link 1 = /gpfs1/apps/software/Gaussian16/AVX/g16/l1.exe PID=     45999.
  
 Copyright (c) 1988-2019, Gaussian, Inc.  All Rights Reserved.
  
 This is part of the Gaussian(R) 16 program.  It is based on
 the Gaussian(R) 09 system (copyright 2009, Gaussian, Inc.),
 the Gaussian(R) 03 system (copyright 2003, Gaussian, Inc.),
 the Gaussian(R) 98 system (copyright 1998, Gaussian, Inc.),
 the Gaussian(R) 94 system (copyright 1995, Gaussian, Inc.),
 the Gaussian 92(TM) system (copyright 1992, Gaussian, Inc.),
 the Gaussian 90(TM) system (copyright 1990, Gaussian, Inc.),
 the Gaussian 88(TM) system (copyright 1988, Gaussian, Inc.),
 the Gaussian 86(TM) system (copyright 1986, Carnegie Mellon
 University), and the Gaussian 82(TM) system (copyright 1983,
 Carnegie Mellon University). Gaussian is a federally registered
 trademark of Gaussian, Inc.
  
 This software contains proprietary and confidential information,
 including trade secrets, belonging to Gaussian, Inc.
  
 This software is provided under written license and may be
 used, copied, transmitted, or stored only in accord with that
 written license.
  
 The following legend is applicable only to US Government
 contracts under FAR:
  
                    RESTRICTED RIGHTS LEGEND
  
 Use, reproduction and disclosure by the US Government is
 subject to restrictions as set forth in subparagraphs (a)
 and (c) of the Commercial Computer Software - Restricted
 Rights clause in FAR 52.227-19.
  
 Gaussian, Inc.
 340 Quinnipiac St., Bldg. 40, Wallingford CT 06492
  
  
 ---------------------------------------------------------------
 Warning -- This program may not be used in any manner that
 competes with the business of Gaussian, Inc. or will provide
 assistance to any competitor of Gaussian, Inc.  The licensee
 of this program is prohibited from giving any competitor of
 Gaussian, Inc. access to this program.  By using this program,
 the user acknowledges that Gaussian, Inc. is engaged in the
 business of creating and licensing software in the field of
 computational chemistry and represents and warrants to the
 licensee that it is not a competitor of Gaussian, Inc. and that
 it will not use this program in any manner prohibited above.
 ---------------------------------------------------------------
  

 Cite this work as:
 Gaussian 16, Revision C.01,
 M. J. Frisch, G. W. Trucks, H. B. Schlegel, G. E. Scuseria, 
 M. A. Robb, J. R. Cheeseman, G. Scalmani, V. Barone, 
 G. A. Petersson, H. Nakatsuji, X. Li, M. Caricato, A. V. Marenich, 
 J. Bloino, B. G. Janesko, R. Gomperts, B. Mennucci, H. P. Hratchian, 
 J. V. Ortiz, A. F. Izmaylov, J. L. Sonnenberg, D. Williams-Young, 
 F. Ding, F. Lipparini, F. Egidi, J. Goings, B. Peng, A. Petrone, 
 T. Henderson, D. Ranasinghe, V. G. Zakrzewski, J. Gao, N. Rega, 
 G. Zheng, W. Liang, M. Hada, M. Ehara, K. Toyota, R. Fukuda, 
 J. Hasegawa, M. Ishida, T. Nakajima, Y. Honda, O. Kitao, H. Nakai, 
 T. Vreven, K. Throssell, J. A. Montgomery, Jr., J. E. Peralta, 
 F. Ogliaro, M. J. Bearpark, J. J. Heyd, E. N. Brothers, K. N. Kudin, 
 V. N. Staroverov, T. A. Keith, R. Kobayashi, J. Normand, 
 K. Raghavachari, A. P. Rendell, J. C. Burant, S. S. Iyengar, 
 J. Tomasi, M. Cossi, J. M. Millam, M. Klene, C. Adamo, R. Cammi, 
 J. W. Ochterski, R. L. Martin, K. Morokuma, O. Farkas, 
 J. B. Foresman, and D. J. Fox, Gaussian, Inc., Wallingford CT, 2019.
 
 ******************************************
 Gaussian 16:  ES64L-G16RevC.01  3-Jul-2019
                 7-Jun-2022 
 ******************************************
 %Chk="Naphthalene.chk"
 %Rwf="Naphthalene.rwf"
 %NProcShared=4
 Will use up to    4 processors via shared memory.
 %Mem=10GB
 ----------------------------------------------------------------------
 #p Opt Freq PBE1PBE/6-31G(d,p) SCRF=(Solvent=Toluene) EmpiricalDispers
 ion=(GD3BJ) Symmetry=(Tight) Population=(Regular) Density=(Current)
 ----------------------------------------------------------------------
 1/18=20,19=15,26=3,38=1/1,3;
 2/9=110,12=2,40=1/2;
 3/5=1,6=6,7=101,11=2,25=1,30=1,70=2201,71=1,72=13,74=-13,124=41/1,2,3;
 4//1;
 5/5=2,38=5,53=13/2;
 6/22=-1,28=1/1;
 7//1,2,3,16;
 1/18=20,19=15,26=3/3(2);
 2/9=110/2;
 99//99;
 2/9=110/2;
 3/5=1,6=6,7=101,11=2,25=1,30=1,70=2205,71=1,72=13,74=-13,124=41/1,2,3;
 4/5=5,16=3,69=1/1;
 5/5=2,38=5,53=13/2;
 7//1,2,3,16;
 1/18=20,19=15,26=3/3(-5);
 2/9=110/2;
 6/19=2,22=-1,28=1/1;
 99/9=1/99;
 Leave Link    1 at Tue Jun  7 16:30:29 2022, MaxMem=  1342177280 cpu:               0.3 elap:               0.1
 (Enter /gpfs1/apps/software/Gaussian16/AVX/g16/l101.exe)
 ----------------------------------------------------------------------
 Naphthalene_Optimisation_Frequencies_PBE1PBE__GD3BJ__Toluene_6_31G_d_p
 _
 ----------------------------------------------------------------------
 Symbolic Z-matrix:
 Charge =  0 Multiplicity = 1
 C                     1.22392  -1.39264  -0.00465 
 C                     2.43349  -0.69589  -0.00607 
 C                     2.43463   0.69593  -0.00478 
 C                     1.22621   1.39466  -0.00238 
 C                     0.0005    0.70909  -0.00158 
 C                    -0.00066  -0.70506  -0.00249 
 C                    -1.22636  -1.39063  -0.00154 
 C                    -1.22407   1.39667  -0.00023 
 C                    -2.43364   0.69992   0.00005 
 C                    -2.43478  -0.6919   -0.00045 
 H                     1.24325  -2.48004  -0.00559 
 H                     3.37369  -1.24098  -0.00825 
 H                     3.37573   1.23948  -0.0058 
 H                     1.24733   2.48203  -0.0014 
 H                    -1.24748  -2.478    -0.00191 
 H                    -1.24341   2.48407   0.00026 
 H                    -3.37385   1.24501   0.00058 
 H                    -3.37588  -1.23545  -0.00015 
 
 ITRead=  0  0  0  0  0  0  0  0  0  0  0  0  0  0  0  0  0  0
 MicOpt= -1 -1 -1 -1 -1 -1 -1 -1 -1 -1 -1 -1 -1 -1 -1 -1 -1 -1
 NAtoms=     18 NQM=       18 NQMF=       0 NMMI=      0 NMMIF=      0
                NMic=       0 NMicF=      0.
                    Isotopes and Nuclear Properties:
 (Nuclear quadrupole moments (NQMom) in fm**2, nuclear magnetic moments (NMagM)
  in nuclear magnetons)

  Atom         1           2           3           4           5           6           7           8           9          10
 IAtWgt=          12          12          12          12          12          12          12          12          12          12
 AtmWgt=  12.0000000  12.0000000  12.0000000  12.0000000  12.0000000  12.0000000  12.0000000  12.0000000  12.0000000  12.0000000
 NucSpn=           0           0           0           0           0           0           0           0           0           0
 AtZEff=  -0.0000000  -0.0000000  -0.0000000  -0.0000000  -0.0000000  -0.0000000  -0.0000000  -0.0000000  -0.0000000  -0.0000000
 NQMom=    0.0000000   0.0000000   0.0000000   0.0000000   0.0000000   0.0000000   0.0000000   0.0000000   0.0000000   0.0000000
 NMagM=    0.0000000   0.0000000   0.0000000   0.0000000   0.0000000   0.0000000   0.0000000   0.0000000   0.0000000   0.0000000
 AtZNuc=   6.0000000   6.0000000   6.0000000   6.0000000   6.0000000   6.0000000   6.0000000   6.0000000   6.0000000   6.0000000

  Atom        11          12          13          14          15          16          17          18
 IAtWgt=           1           1           1           1           1           1           1           1
 AtmWgt=   1.0078250   1.0078250   1.0078250   1.0078250   1.0078250   1.0078250   1.0078250   1.0078250
 NucSpn=           1           1           1           1           1           1           1           1
 AtZEff=  -0.0000000  -0.0000000  -0.0000000  -0.0000000  -0.0000000  -0.0000000  -0.0000000  -0.0000000
 NQMom=    0.0000000   0.0000000   0.0000000   0.0000000   0.0000000   0.0000000   0.0000000   0.0000000
 NMagM=    2.7928460   2.7928460   2.7928460   2.7928460   2.7928460   2.7928460   2.7928460   2.7928460
 AtZNuc=   1.0000000   1.0000000   1.0000000   1.0000000   1.0000000   1.0000000   1.0000000   1.0000000
 Leave Link  101 at Tue Jun  7 16:30:31 2022, MaxMem=  1342177280 cpu:               1.9 elap:               0.5
 (Enter /gpfs1/apps/software/Gaussian16/AVX/g16/l103.exe)

 GradGradGradGradGradGradGradGradGradGradGradGradGradGradGradGradGradGrad
 Berny optimization.
 Initialization pass.
                           ----------------------------
                           !    Initial Parameters    !
                           ! (Angstroms and Degrees)  !
 --------------------------                            --------------------------
 ! Name  Definition              Value          Derivative Info.                !
 --------------------------------------------------------------------------------
 ! R1    R(1,2)                  1.3959         estimate D2E/DX2                !
 ! R2    R(1,6)                  1.4044         estimate D2E/DX2                !
 ! R3    R(1,11)                 1.0876         estimate D2E/DX2                !
 ! R4    R(2,3)                  1.3918         estimate D2E/DX2                !
 ! R5    R(2,12)                 1.0868         estimate D2E/DX2                !
 ! R6    R(3,4)                  1.3959         estimate D2E/DX2                !
 ! R7    R(3,13)                 1.0868         estimate D2E/DX2                !
 ! R8    R(4,5)                  1.4044         estimate D2E/DX2                !
 ! R9    R(4,14)                 1.0876         estimate D2E/DX2                !
 ! R10   R(5,6)                  1.4142         estimate D2E/DX2                !
 ! R11   R(5,8)                  1.4044         estimate D2E/DX2                !
 ! R12   R(6,7)                  1.4044         estimate D2E/DX2                !
 ! R13   R(7,10)                 1.3959         estimate D2E/DX2                !
 ! R14   R(7,15)                 1.0876         estimate D2E/DX2                !
 ! R15   R(8,9)                  1.3959         estimate D2E/DX2                !
 ! R16   R(8,16)                 1.0876         estimate D2E/DX2                !
 ! R17   R(9,10)                 1.3918         estimate D2E/DX2                !
 ! R18   R(9,17)                 1.0868         estimate D2E/DX2                !
 ! R19   R(10,18)                1.0868         estimate D2E/DX2                !
 ! A1    A(2,1,6)              120.7433         estimate D2E/DX2                !
 ! A2    A(2,1,11)             118.9248         estimate D2E/DX2                !
 ! A3    A(6,1,11)             120.3319         estimate D2E/DX2                !
 ! A4    A(1,2,3)              119.9901         estimate D2E/DX2                !
 ! A5    A(1,2,12)             119.9533         estimate D2E/DX2                !
 ! A6    A(3,2,12)             120.0565         estimate D2E/DX2                !
 ! A7    A(2,3,4)              119.9904         estimate D2E/DX2                !
 ! A8    A(2,3,13)             120.0562         estimate D2E/DX2                !
 ! A9    A(4,3,13)             119.9534         estimate D2E/DX2                !
 ! A10   A(3,4,5)              120.7434         estimate D2E/DX2                !
 ! A11   A(3,4,14)             118.9246         estimate D2E/DX2                !
 ! A12   A(5,4,14)             120.332          estimate D2E/DX2                !
 ! A13   A(4,5,6)              119.2663         estimate D2E/DX2                !
 ! A14   A(4,5,8)              121.467          estimate D2E/DX2                !
 ! A15   A(6,5,8)              119.2667         estimate D2E/DX2                !
 ! A16   A(1,6,5)              119.2665         estimate D2E/DX2                !
 ! A17   A(1,6,7)              121.467          estimate D2E/DX2                !
 ! A18   A(5,6,7)              119.2665         estimate D2E/DX2                !
 ! A19   A(6,7,10)             120.7432         estimate D2E/DX2                !
 ! A20   A(6,7,15)             120.3323         estimate D2E/DX2                !
 ! A21   A(10,7,15)            118.9246         estimate D2E/DX2                !
 ! A22   A(5,8,9)              120.7431         estimate D2E/DX2                !
 ! A23   A(5,8,16)             120.3326         estimate D2E/DX2                !
 ! A24   A(9,8,16)             118.9243         estimate D2E/DX2                !
 ! A25   A(8,9,10)             119.9902         estimate D2E/DX2                !
 ! A26   A(8,9,17)             119.9536         estimate D2E/DX2                !
 ! A27   A(10,9,17)            120.0562         estimate D2E/DX2                !
 ! A28   A(7,10,9)             119.9903         estimate D2E/DX2                !
 ! A29   A(7,10,18)            119.9533         estimate D2E/DX2                !
 ! A30   A(9,10,18)            120.0563         estimate D2E/DX2                !
 ! D1    D(6,1,2,3)              0.0271         estimate D2E/DX2                !
 ! D2    D(6,1,2,12)          -179.9688         estimate D2E/DX2                !
 ! D3    D(11,1,2,3)          -179.9938         estimate D2E/DX2                !
 ! D4    D(11,1,2,12)            0.0103         estimate D2E/DX2                !
 ! D5    D(2,1,6,5)             -0.0083         estimate D2E/DX2                !
 ! D6    D(2,1,6,7)            179.9761         estimate D2E/DX2                !
 ! D7    D(11,1,6,5)          -179.9871         estimate D2E/DX2                !
 ! D8    D(11,1,6,7)            -0.0027         estimate D2E/DX2                !
 ! D9    D(1,2,3,4)             -0.0149         estimate D2E/DX2                !
 ! D10   D(1,2,3,13)           179.9949         estimate D2E/DX2                !
 ! D11   D(12,2,3,4)           179.981          estimate D2E/DX2                !
 ! D12   D(12,2,3,13)           -0.0092         estimate D2E/DX2                !
 ! D13   D(2,3,4,5)             -0.0162         estimate D2E/DX2                !
 ! D14   D(2,3,4,14)           179.9999         estimate D2E/DX2                !
 ! D15   D(13,3,4,5)           179.9741         estimate D2E/DX2                !
 ! D16   D(13,3,4,14)           -0.0098         estimate D2E/DX2                !
 ! D17   D(3,4,5,6)              0.0347         estimate D2E/DX2                !
 ! D18   D(3,4,5,8)           -179.9494         estimate D2E/DX2                !
 ! D19   D(14,4,5,6)          -179.9816         estimate D2E/DX2                !
 ! D20   D(14,4,5,8)             0.0343         estimate D2E/DX2                !
 ! D21   D(4,5,6,1)             -0.0223         estimate D2E/DX2                !
 ! D22   D(4,5,6,7)            179.993          estimate D2E/DX2                !
 ! D23   D(8,5,6,1)            179.9621         estimate D2E/DX2                !
 ! D24   D(8,5,6,7)             -0.0226         estimate D2E/DX2                !
 ! D25   D(4,5,8,9)            179.9761         estimate D2E/DX2                !
 ! D26   D(4,5,8,16)            -0.0022         estimate D2E/DX2                !
 ! D27   D(6,5,8,9)             -0.008          estimate D2E/DX2                !
 ! D28   D(6,5,8,16)          -179.9863         estimate D2E/DX2                !
 ! D29   D(1,6,7,10)          -179.9494         estimate D2E/DX2                !
 ! D30   D(1,6,7,15)             0.0343         estimate D2E/DX2                !
 ! D31   D(5,6,7,10)             0.035          estimate D2E/DX2                !
 ! D32   D(5,6,7,15)          -179.9813         estimate D2E/DX2                !
 ! D33   D(6,7,10,9)            -0.0164         estimate D2E/DX2                !
 ! D34   D(6,7,10,18)          179.974          estimate D2E/DX2                !
 ! D35   D(15,7,10,9)          179.9996         estimate D2E/DX2                !
 ! D36   D(15,7,10,18)          -0.01           estimate D2E/DX2                !
 ! D37   D(5,8,9,10)             0.0268         estimate D2E/DX2                !
 ! D38   D(5,8,9,17)          -179.9684         estimate D2E/DX2                !
 ! D39   D(16,8,9,10)         -179.9946         estimate D2E/DX2                !
 ! D40   D(16,8,9,17)            0.0102         estimate D2E/DX2                !
 ! D41   D(8,9,10,7)            -0.0146         estimate D2E/DX2                !
 ! D42   D(8,9,10,18)          179.995          estimate D2E/DX2                !
 ! D43   D(17,9,10,7)          179.9806         estimate D2E/DX2                !
 ! D44   D(17,9,10,18)          -0.0098         estimate D2E/DX2                !
 --------------------------------------------------------------------------------
 Trust Radius=3.00D-01 FncErr=1.00D-07 GrdErr=1.00D-06 EigMax=2.50D+02 EigMin=1.00D-04
 Number of steps in this run=    103 maximum allowed number of steps=    108.
 GradGradGradGradGradGradGradGradGradGradGradGradGradGradGradGradGradGrad

 Leave Link  103 at Tue Jun  7 16:30:32 2022, MaxMem=  1342177280 cpu:               0.0 elap:               0.0
 (Enter /gpfs1/apps/software/Gaussian16/AVX/g16/l202.exe)
                          Input orientation:                          
 ---------------------------------------------------------------------
 Center     Atomic      Atomic             Coordinates (Angstroms)
 Number     Number       Type             X           Y           Z
 ---------------------------------------------------------------------
      1          6           0        1.223920   -1.392640   -0.004650
      2          6           0        2.433490   -0.695890   -0.006070
      3          6           0        2.434630    0.695930   -0.004780
      4          6           0        1.226210    1.394660   -0.002380
      5          6           0        0.000500    0.709090   -0.001580
      6          6           0       -0.000660   -0.705060   -0.002490
      7          6           0       -1.226360   -1.390630   -0.001540
      8          6           0       -1.224070    1.396670   -0.000230
      9          6           0       -2.433640    0.699920    0.000050
     10          6           0       -2.434780   -0.691900   -0.000450
     11          1           0        1.243250   -2.480040   -0.005590
     12          1           0        3.373690   -1.240980   -0.008250
     13          1           0        3.375730    1.239480   -0.005800
     14          1           0        1.247330    2.482030   -0.001400
     15          1           0       -1.247480   -2.478000   -0.001910
     16          1           0       -1.243410    2.484070    0.000260
     17          1           0       -3.373850    1.245010    0.000580
     18          1           0       -3.375880   -1.235450   -0.000150
 ---------------------------------------------------------------------
                    Distance matrix (angstroms):
                    1          2          3          4          5
     1  C    0.000000
     2  C    1.395895   0.000000
     3  C    2.414113   1.391821   0.000000
     4  C    2.787302   2.414112   1.395890   0.000000
     5  C    2.431879   2.809525   2.434168   1.404412   0.000000
     6  C    1.404410   2.434170   2.809522   2.431879   1.414151
     7  C    2.450283   3.725210   4.213857   3.711191   2.431874
     8  C    3.711189   4.213857   3.725204   2.450282   1.404400
     9  C    4.213855   5.063327   4.868274   3.725208   2.434158
    10  C    3.725203   4.868275   5.063323   4.213856   2.809513
    11  H    1.087572   2.144729   3.392075   3.874739   3.422717
    12  H    2.155116   1.086786   2.152549   3.399750   3.896310
    13  H    3.399756   2.152550   1.086792   2.155117   3.416652
    14  H    3.874742   3.392075   2.144725   1.087576   2.167464
    15  H    2.699228   4.089679   4.861252   4.595284   3.422718
    16  H    4.595283   4.861253   4.089676   2.699230   2.167457
    17  H    5.300633   6.123098   5.834377   4.602495   3.416644
    18  H    4.602487   5.834376   6.123094   5.300634   3.896303
                    6          7          8          9         10
     6  C    0.000000
     7  C    1.404403   0.000000
     8  C    2.431873   2.787301   0.000000
     9  C    2.809514   2.414110   1.395894   0.000000
    10  C    2.434156   1.395888   2.414113   1.391821   0.000000
    11  H    2.167458   2.699223   4.595278   4.861244   4.089667
    12  H    3.416648   4.602488   5.300628   6.123091   5.834370
    13  H    3.896313   5.300635   4.602488   5.834376   6.123094
    14  H    3.422722   4.595284   2.699227   4.089677   4.861252
    15  H    2.167459   1.087575   3.874741   3.392072   2.144723
    16  H    3.422716   3.874738   1.087572   2.144723   3.392071
    17  H    3.896305   3.399752   2.155123   1.086793   2.152551
    18  H    3.416640   2.155115   3.399756   2.152550   1.086792
                   11         12         13         14         15
    11  H    0.000000
    12  H    2.464559   0.000000
    13  H    4.287458   2.480462   0.000000
    14  H    4.962073   4.287453   2.464556   0.000000
    15  H    2.490734   4.783876   5.932431   5.552114   0.000000
    16  H    5.552108   5.932426   4.783879   2.490741   4.962072
    17  H    5.932423   7.190933   6.749585   4.783882   4.287454
    18  H    4.783868   6.749577   7.190935   5.932430   2.464553
                   16         17         18
    16  H    0.000000
    17  H    2.464558   0.000000
    18  H    4.287453   2.480461   0.000000
 Stoichiometry    C10H8
 Framework group  C1[X(C10H8)]
 Deg. of freedom    48
 Full point group                 C1      NOp   1
 Largest Abelian subgroup         C1      NOp   1
 Largest concise Abelian subgroup C1      NOp   1
                         Standard orientation:                         
 ---------------------------------------------------------------------
 Center     Atomic      Atomic             Coordinates (Angstroms)
 Number     Number       Type             X           Y           Z
 ---------------------------------------------------------------------
      1          6           0       -1.225140   -1.393652   -0.000015
      2          6           0       -2.434140   -0.695912    0.000556
      3          6           0       -2.434138    0.695909    0.000159
      4          6           0       -1.225144    1.393650   -0.000496
      5          6           0        0.000004    0.707076   -0.000422
      6          6           0        0.000005   -0.707075   -0.000419
      7          6           0        1.225143   -1.393649   -0.000496
      8          6           0        1.225138    1.393652   -0.000016
      9          6           0        2.434136    0.695911    0.000553
     10          6           0        2.434135   -0.695909    0.000160
     11          1           0       -1.245362   -2.481036    0.000205
     12          1           0       -3.374788   -1.240232    0.001377
     13          1           0       -3.374793    1.240230    0.000519
     14          1           0       -1.245372    2.481037   -0.000799
     15          1           0        1.245372   -2.481036   -0.000802
     16          1           0        1.245369    2.481036    0.000214
     17          1           0        3.374792    1.240230    0.001382
     18          1           0        3.374790   -1.240230    0.000520
 ---------------------------------------------------------------------
 Rotational constants (GHZ):           3.1687349           1.2368145           0.8895911
 Leave Link  202 at Tue Jun  7 16:30:33 2022, MaxMem=  1342177280 cpu:               0.2 elap:               0.1
 (Enter /gpfs1/apps/software/Gaussian16/AVX/g16/l301.exe)
 Standard basis: 6-31G(d,p) (6D, 7F)
 Ernie: Thresh=  0.10000D-02 Tol=  0.10000D-05 Strict=F.
 There are   190 symmetry adapted cartesian basis functions of A   symmetry.
 There are   190 symmetry adapted basis functions of A   symmetry.
   190 basis functions,   336 primitive gaussians,   190 cartesian basis functions
    34 alpha electrons       34 beta electrons
       nuclear repulsion energy       459.0849244008 Hartrees.
 IExCor= 1009 DFT=T Ex+Corr=PBE1PBE ExCW=0 ScaHFX=  0.250000
 ScaDFX=  0.750000  0.750000  1.000000  1.000000 ScalE2=  1.000000  1.000000
 IRadAn=      5 IRanWt=     -1 IRanGd=            0 ICorTp=0 IEmpDi=141
 NAtoms=   18 NActive=   18 NUniq=   18 SFac= 1.00D+00 NAtFMM=   60 NAOKFM=F Big=F
 Integral buffers will be    131072 words long.
 Raffenetti 2 integral format.
 Two-electron integral symmetry is turned on.
 R6Disp:  Grimme-D3(BJ) Dispersion energy=       -0.0185333421 Hartrees.
 Nuclear repulsion after empirical dispersion term =      459.0663910586 Hartrees.
 ------------------------------------------------------------------------------
 Polarizable Continuum Model (PCM)
 =================================
 Model                : PCM.
 Atomic radii         : UFF (Universal Force Field).
 Polarization charges : Total charges.
 Charge compensation  : None.
 Solution method      : On-the-fly selection.
 Cavity type          : Scaled VdW (van der Waals Surface) (Alpha=1.100).
 Cavity algorithm     : GePol (No added spheres)
                        Default sphere list used, NSphG=   18.
                        Lebedev-Laikov grids with approx.  5.0 points / Ang**2.
                        Smoothing algorithm: York/Karplus (Gamma=1.0000).
                        Polarization charges: spherical gaussians, with
                                              point-specific exponents (IZeta= 3).
                        Self-potential: point-specific (ISelfS= 7).
                        Self-field    : sphere-specific E.n sum rule (ISelfD= 2).
 1st derivatives      : Analytical E(r).r(x)/FMM algorithm (CHGder, D1EAlg=3).
                        Cavity 1st derivative terms included.
 Solvent              : Toluene, Eps=   2.374100 Eps(inf)=   2.238315
 ------------------------------------------------------------------------------
 Spheres list:
 ISph  on   Nord     Re0    Alpha      Xe            Ye            Ze
    1   C      1    1.9255  1.100     -1.225140     -1.393652     -0.000015
    2   C      2    1.9255  1.100     -2.434140     -0.695912      0.000556
    3   C      3    1.9255  1.100     -2.434138      0.695909      0.000159
    4   C      4    1.9255  1.100     -1.225144      1.393650     -0.000496
    5   C      5    1.9255  1.100      0.000004      0.707076     -0.000422
    6   C      6    1.9255  1.100      0.000005     -0.707075     -0.000419
    7   C      7    1.9255  1.100      1.225143     -1.393649     -0.000496
    8   C      8    1.9255  1.100      1.225138      1.393652     -0.000016
    9   C      9    1.9255  1.100      2.434136      0.695911      0.000553
   10   C     10    1.9255  1.100      2.434135     -0.695909      0.000160
   11   H     11    1.4430  1.100     -1.245362     -2.481036      0.000205
   12   H     12    1.4430  1.100     -3.374788     -1.240232      0.001377
   13   H     13    1.4430  1.100     -3.374793      1.240230      0.000519
   14   H     14    1.4430  1.100     -1.245372      2.481037     -0.000799
   15   H     15    1.4430  1.100      1.245372     -2.481036     -0.000802
   16   H     16    1.4430  1.100      1.245369      2.481036      0.000214
   17   H     17    1.4430  1.100      3.374792      1.240230      0.001382
   18   H     18    1.4430  1.100      3.374790     -1.240230      0.000520
 ------------------------------------------------------------------------------
 GePol: Number of generator spheres                  =      18
 GePol: Total number of spheres                      =      18
 GePol: Number of exposed spheres                    =      18 (100.00%)
 GePol: Number of points                             =    1468
 GePol: Average weight of points                     =       0.13
 GePol: Minimum weight of points                     =   0.91D-08
 GePol: Maximum weight of points                     =    0.20577
 GePol: Number of points with low weight             =      76
 GePol: Fraction of low-weight points (<1% of avg)   =       5.18%
 GePol: Cavity surface area                          =    195.623 Ang**2
 GePol: Cavity volume                                =    198.066 Ang**3
 Leave Link  301 at Tue Jun  7 16:30:34 2022, MaxMem=  1342177280 cpu:               0.3 elap:               0.1
 (Enter /gpfs1/apps/software/Gaussian16/AVX/g16/l302.exe)
 NPDir=0 NMtPBC=     1 NCelOv=     1 NCel=       1 NClECP=     1 NCelD=      1
         NCelK=      1 NCelE2=     1 NClLst=     1 CellRange=     0.0.
 One-electron integrals computed using PRISM.
 One-electron integral symmetry used in STVInt
 NBasis=   190 RedAO= T EigKep=  2.89D-04  NBF=   190
 NBsUse=   190 1.00D-06 EigRej= -1.00D+00 NBFU=   190
 Precomputing XC quadrature grid using
 IXCGrd= 4 IRadAn=           5 IRanWt=          -1 IRanGd=           0 AccXCQ= 0.00D+00.
 Generated NRdTot=       0 NPtTot=           0 NUsed=           0 NTot=          32
 NSgBfM=   190   190   190   190   190 MxSgAt=    18 MxSgA2=    18.
 Leave Link  302 at Tue Jun  7 16:30:35 2022, MaxMem=  1342177280 cpu:               1.2 elap:               0.3
 (Enter /gpfs1/apps/software/Gaussian16/AVX/g16/l303.exe)
 DipDrv:  MaxL=1.
 Leave Link  303 at Tue Jun  7 16:30:37 2022, MaxMem=  1342177280 cpu:               0.2 elap:               0.1
 (Enter /gpfs1/apps/software/Gaussian16/AVX/g16/l401.exe)
 ExpMin= 1.61D-01 ExpMax= 3.05D+03 ExpMxC= 4.57D+02 IAcc=3 IRadAn=         5 AccDes= 0.00D+00
 Harris functional with IExCor= 1009 and IRadAn=       5 diagonalized for initial guess.
 HarFok:  IExCor= 1009 AccDes= 0.00D+00 IRadAn=         5 IDoV= 1 UseB2=F ITyADJ=14
 ICtDFT=  3500011 ScaDFX=  1.000000  1.000000  1.000000  1.000000
 FoFCou: FMM=F IPFlag=           0 FMFlag=      100000 FMFlg1=           0
         NFxFlg=           0 DoJE=T BraDBF=F KetDBF=T FulRan=T
         wScrn=  0.000000 ICntrl=       500 IOpCl=  0 I1Cent=   200000004 NGrid=           0
         NMat0=    1 NMatS0=      1 NMatT0=    0 NMatD0=    1 NMtDS0=    0 NMtDT0=    0
 Petite list used in FoFCou.
 Harris En= -385.592622159132    
 JPrj=0 DoOrth=F DoCkMO=F.
 Leave Link  401 at Tue Jun  7 16:30:41 2022, MaxMem=  1342177280 cpu:               8.3 elap:               2.1
 (Enter /gpfs1/apps/software/Gaussian16/AVX/g16/l502.exe)
 Keep R1 ints in memory in canonical form, NReq=168703747.
 FoFCou: FMM=F IPFlag=           0 FMFlag=           0 FMFlg1=           0
         NFxFlg=           0 DoJE=F BraDBF=F KetDBF=F FulRan=T
         wScrn=  0.000000 ICntrl=       600 IOpCl=  0 I1Cent=           0 NGrid=           0
         NMat0=    1 NMatS0=  18145 NMatT0=    0 NMatD0=    1 NMtDS0=    0 NMtDT0=    0
 Symmetry not used in FoFCou.
 Two-electron integral symmetry not used.
 Closed shell SCF:
 Using DIIS extrapolation, IDIIS=  1040.
 NGot=  1342177280 LenX=  1177471859 LenY=  1177435318
 Requested convergence on RMS density matrix=1.00D-08 within 128 cycles.
 Requested convergence on MAX density matrix=1.00D-06.
 Requested convergence on             energy=1.00D-06.
 No special actions if energy rises.

 Cycle   1  Pass 1  IDiag  1:
 Inv3:  Mode=1 IEnd=     6465072.
 Iteration    1 A*A^-1 deviation from unit magnitude is 5.44D-15 for   1462.
 Iteration    1 A*A^-1 deviation from orthogonality  is 2.53D-15 for   1453   1321.
 Iteration    1 A^-1*A deviation from unit magnitude is 5.44D-15 for   1462.
 Iteration    1 A^-1*A deviation from orthogonality  is 1.45D-15 for   1456   1380.
 E= -385.266840183699    
 DIIS: error= 4.41D-02 at cycle   1 NSaved=   1.
 NSaved= 1 IEnMin= 1 EnMin= -385.266840183699     IErMin= 1 ErrMin= 4.41D-02
 ErrMax= 4.41D-02  0.00D+00 EMaxC= 1.00D-01 BMatC= 1.77D-01 BMatP= 1.77D-01
 IDIUse=3 WtCom= 5.59D-01 WtEn= 4.41D-01
 Coeff-Com:  0.100D+01
 Coeff-En:   0.100D+01
 Coeff:      0.100D+01
 Gap=     0.181 Goal=   None    Shift=    0.000
 GapD=    0.181 DampG=1.000 DampE=0.500 DampFc=0.5000 IDamp=-1.
 Damping current iteration by 5.00D-01
 RMSDP=5.04D-03 MaxDP=7.87D-02              OVMax= 1.31D-01

 Cycle   2  Pass 1  IDiag  1:
 E= -385.366526784310     Delta-E=       -0.099686600611 Rises=F Damp=T
 DIIS: error= 1.03D-02 at cycle   2 NSaved=   2.
 NSaved= 2 IEnMin= 2 EnMin= -385.366526784310     IErMin= 2 ErrMin= 1.03D-02
 ErrMax= 1.03D-02  0.00D+00 EMaxC= 1.00D-01 BMatC= 1.22D-02 BMatP= 1.77D-01
 IDIUse=3 WtCom= 8.97D-01 WtEn= 1.03D-01
 Coeff-Com: -0.115D+00 0.112D+01
 Coeff-En:   0.000D+00 0.100D+01
 Coeff:     -0.103D+00 0.110D+01
 Gap=     0.181 Goal=   None    Shift=    0.000
 RMSDP=1.64D-03 MaxDP=3.13D-02 DE=-9.97D-02 OVMax= 7.00D-02

 Cycle   3  Pass 1  IDiag  1:
 E= -385.458632657288     Delta-E=       -0.092105872978 Rises=F Damp=F
 DIIS: error= 3.62D-03 at cycle   3 NSaved=   3.
 NSaved= 3 IEnMin= 3 EnMin= -385.458632657288     IErMin= 3 ErrMin= 3.62D-03
 ErrMax= 3.62D-03  0.00D+00 EMaxC= 1.00D-01 BMatC= 1.64D-03 BMatP= 1.22D-02
 IDIUse=3 WtCom= 9.64D-01 WtEn= 3.62D-02
 Coeff-Com: -0.672D-01 0.268D+00 0.799D+00
 Coeff-En:   0.000D+00 0.000D+00 0.100D+01
 Coeff:     -0.648D-01 0.258D+00 0.806D+00
 Gap=     0.180 Goal=   None    Shift=    0.000
 RMSDP=4.37D-04 MaxDP=8.54D-03 DE=-9.21D-02 OVMax= 1.38D-02

 Cycle   4  Pass 1  IDiag  1:
 E= -385.459701358920     Delta-E=       -0.001068701632 Rises=F Damp=F
 DIIS: error= 2.25D-03 at cycle   4 NSaved=   4.
 NSaved= 4 IEnMin= 4 EnMin= -385.459701358920     IErMin= 4 ErrMin= 2.25D-03
 ErrMax= 2.25D-03  0.00D+00 EMaxC= 1.00D-01 BMatC= 5.47D-04 BMatP= 1.64D-03
 IDIUse=3 WtCom= 9.78D-01 WtEn= 2.25D-02
 Coeff-Com: -0.281D-01 0.814D-01 0.409D+00 0.538D+00
 Coeff-En:   0.000D+00 0.000D+00 0.205D+00 0.795D+00
 Coeff:     -0.275D-01 0.796D-01 0.405D+00 0.543D+00
 Gap=     0.180 Goal=   None    Shift=    0.000
 RMSDP=1.51D-04 MaxDP=4.38D-03 DE=-1.07D-03 OVMax= 8.02D-03

 Cycle   5  Pass 1  IDiag  1:
 E= -385.460193606113     Delta-E=       -0.000492247192 Rises=F Damp=F
 DIIS: error= 5.82D-04 at cycle   5 NSaved=   5.
 NSaved= 5 IEnMin= 5 EnMin= -385.460193606113     IErMin= 5 ErrMin= 5.82D-04
 ErrMax= 5.82D-04  0.00D+00 EMaxC= 1.00D-01 BMatC= 3.05D-05 BMatP= 5.47D-04
 IDIUse=3 WtCom= 9.94D-01 WtEn= 5.82D-03
 Coeff-Com: -0.734D-02 0.156D-01 0.119D+00 0.252D+00 0.621D+00
 Coeff-En:   0.000D+00 0.000D+00 0.000D+00 0.000D+00 0.100D+01
 Coeff:     -0.729D-02 0.155D-01 0.118D+00 0.251D+00 0.623D+00
 Gap=     0.180 Goal=   None    Shift=    0.000
 RMSDP=3.26D-05 MaxDP=1.14D-03 DE=-4.92D-04 OVMax= 2.34D-03

 Cycle   6  Pass 1  IDiag  1:
 E= -385.460220714487     Delta-E=       -0.000027108375 Rises=F Damp=F
 DIIS: error= 2.08D-04 at cycle   6 NSaved=   6.
 NSaved= 6 IEnMin= 6 EnMin= -385.460220714487     IErMin= 6 ErrMin= 2.08D-04
 ErrMax= 2.08D-04  0.00D+00 EMaxC= 1.00D-01 BMatC= 3.01D-06 BMatP= 3.05D-05
 IDIUse=3 WtCom= 9.98D-01 WtEn= 2.08D-03
 Coeff-Com: -0.374D-02 0.740D-02 0.607D-01 0.138D+00 0.383D+00 0.414D+00
 Coeff-En:   0.000D+00 0.000D+00 0.000D+00 0.000D+00 0.000D+00 0.100D+01
 Coeff:     -0.373D-02 0.739D-02 0.606D-01 0.138D+00 0.383D+00 0.415D+00
 Gap=     0.180 Goal=   None    Shift=    0.000
 RMSDP=1.02D-05 MaxDP=2.09D-04 DE=-2.71D-05 OVMax= 6.23D-04

 Cycle   7  Pass 1  IDiag  1:
 E= -385.460223953755     Delta-E=       -0.000003239268 Rises=F Damp=F
 DIIS: error= 1.55D-05 at cycle   7 NSaved=   7.
 NSaved= 7 IEnMin= 7 EnMin= -385.460223953755     IErMin= 7 ErrMin= 1.55D-05
 ErrMax= 1.55D-05  0.00D+00 EMaxC= 1.00D-01 BMatC= 2.52D-08 BMatP= 3.01D-06
 IDIUse=1 WtCom= 1.00D+00 WtEn= 0.00D+00
 Coeff-Com: -0.146D-03 0.103D-03 0.196D-02 0.684D-02 0.293D-01 0.962D-01
 Coeff-Com:  0.866D+00
 Coeff:     -0.146D-03 0.103D-03 0.196D-02 0.684D-02 0.293D-01 0.962D-01
 Coeff:      0.866D+00
 Gap=     0.180 Goal=   None    Shift=    0.000
 RMSDP=1.16D-06 MaxDP=1.75D-05 DE=-3.24D-06 OVMax= 5.46D-05

 Cycle   8  Pass 1  IDiag  1:
 E= -385.460223980559     Delta-E=       -0.000000026804 Rises=F Damp=F
 DIIS: error= 2.89D-06 at cycle   8 NSaved=   8.
 NSaved= 8 IEnMin= 8 EnMin= -385.460223980559     IErMin= 8 ErrMin= 2.89D-06
 ErrMax= 2.89D-06  0.00D+00 EMaxC= 1.00D-01 BMatC= 3.95D-10 BMatP= 2.52D-08
 IDIUse=1 WtCom= 1.00D+00 WtEn= 0.00D+00
 Coeff-Com:  0.642D-04-0.160D-03-0.129D-02-0.232D-02-0.489D-02 0.590D-02
 Coeff-Com:  0.139D+00 0.864D+00
 Coeff:      0.642D-04-0.160D-03-0.129D-02-0.232D-02-0.489D-02 0.590D-02
 Coeff:      0.139D+00 0.864D+00
 Gap=     0.180 Goal=   None    Shift=    0.000
 RMSDP=1.98D-07 MaxDP=3.49D-06 DE=-2.68D-08 OVMax= 1.49D-05

 Cycle   9  Pass 1  IDiag  1:
 E= -385.460223981156     Delta-E=       -0.000000000597 Rises=F Damp=F
 DIIS: error= 4.04D-07 at cycle   9 NSaved=   9.
 NSaved= 9 IEnMin= 9 EnMin= -385.460223981156     IErMin= 9 ErrMin= 4.04D-07
 ErrMax= 4.04D-07  0.00D+00 EMaxC= 1.00D-01 BMatC= 1.62D-11 BMatP= 3.95D-10
 IDIUse=1 WtCom= 1.00D+00 WtEn= 0.00D+00
 Coeff-Com:  0.123D-04-0.222D-04-0.247D-03-0.511D-03-0.155D-02-0.227D-02
 Coeff-Com: -0.118D-01 0.139D+00 0.878D+00
 Coeff:      0.123D-04-0.222D-04-0.247D-03-0.511D-03-0.155D-02-0.227D-02
 Coeff:     -0.118D-01 0.139D+00 0.878D+00
 Gap=     0.180 Goal=   None    Shift=    0.000
 RMSDP=4.11D-08 MaxDP=6.49D-07 DE=-5.97D-10 OVMax= 2.83D-06

 Cycle  10  Pass 1  IDiag  1:
 E= -385.460223981182     Delta-E=       -0.000000000027 Rises=F Damp=F
 DIIS: error= 7.74D-08 at cycle  10 NSaved=  10.
 NSaved=10 IEnMin=10 EnMin= -385.460223981182     IErMin=10 ErrMin= 7.74D-08
 ErrMax= 7.74D-08  0.00D+00 EMaxC= 1.00D-01 BMatC= 2.02D-13 BMatP= 1.62D-11
 IDIUse=1 WtCom= 1.00D+00 WtEn= 0.00D+00
 Coeff-Com: -0.184D-05 0.448D-05 0.420D-04 0.728D-04 0.198D-03-0.573D-04
 Coeff-Com: -0.279D-02-0.206D-01-0.886D-01 0.111D+01
 Coeff:     -0.184D-05 0.448D-05 0.420D-04 0.728D-04 0.198D-03-0.573D-04
 Coeff:     -0.279D-02-0.206D-01-0.886D-01 0.111D+01
 Gap=     0.180 Goal=   None    Shift=    0.000
 RMSDP=8.01D-09 MaxDP=2.07D-07 DE=-2.67D-11 OVMax= 7.81D-07

 Error on total polarization charges =  0.00546
 SCF Done:  E(RPBE1PBE) =  -385.460223981     A.U. after   10 cycles
            NFock= 10  Conv=0.80D-08     -V/T= 2.0089
 KE= 3.820545584359D+02 PE=-1.811212286358D+03 EE= 5.846311128821D+02
 Leave Link  502 at Tue Jun  7 16:31:20 2022, MaxMem=  1342177280 cpu:             146.9 elap:              39.3
 (Enter /gpfs1/apps/software/Gaussian16/AVX/g16/l601.exe)
 Copying SCF densities to generalized density rwf, IOpCl= 0 IROHF=0.

 **********************************************************************

            Population analysis using the SCF Density.

 **********************************************************************

 Orbital symmetries:
       Occupied  (A) (A) (A) (A) (A) (A) (A) (A) (A) (A) (A) (A)
                 (A) (A) (A) (A) (A) (A) (A) (A) (A) (A) (A) (A)
                 (A) (A) (A) (A) (A) (A) (A) (A) (A) (A)
       Virtual   (A) (A) (A) (A) (A) (A) (A) (A) (A) (A) (A) (A)
                 (A) (A) (A) (A) (A) (A) (A) (A) (A) (A) (A) (A)
                 (A) (A) (A) (A) (A) (A) (A) (A) (A) (A) (A) (A)
                 (A) (A) (A) (A) (A) (A) (A) (A) (A) (A) (A) (A)
                 (A) (A) (A) (A) (A) (A) (A) (A) (A) (A) (A) (A)
                 (A) (A) (A) (A) (A) (A) (A) (A) (A) (A) (A) (A)
                 (A) (A) (A) (A) (A) (A) (A) (A) (A) (A) (A) (A)
                 (A) (A) (A) (A) (A) (A) (A) (A) (A) (A) (A) (A)
                 (A) (A) (A) (A) (A) (A) (A) (A) (A) (A) (A) (A)
                 (A) (A) (A) (A) (A) (A) (A) (A) (A) (A) (A) (A)
                 (A) (A) (A) (A) (A) (A) (A) (A) (A) (A) (A) (A)
                 (A) (A) (A) (A) (A) (A) (A) (A) (A) (A) (A) (A)
                 (A) (A) (A) (A) (A) (A) (A) (A) (A) (A) (A) (A)
 The electronic state is 1-A.
 Alpha  occ. eigenvalues --  -10.24543 -10.24492 -10.24019 -10.24017 -10.24010
 Alpha  occ. eigenvalues --  -10.24007 -10.23954 -10.23953 -10.23905 -10.23904
 Alpha  occ. eigenvalues --   -0.90271  -0.84410  -0.79604  -0.76658  -0.73339
 Alpha  occ. eigenvalues --   -0.64734  -0.62584  -0.61470  -0.52837  -0.52232
 Alpha  occ. eigenvalues --   -0.50563  -0.45905  -0.45515  -0.42541  -0.42533
 Alpha  occ. eigenvalues --   -0.40734  -0.40485  -0.38015  -0.34297  -0.34159
 Alpha  occ. eigenvalues --   -0.33906  -0.29611  -0.25777  -0.21937
 Alpha virt. eigenvalues --   -0.03926  -0.00017   0.03766   0.10782   0.10795
 Alpha virt. eigenvalues --    0.12490   0.13719   0.18171   0.18352   0.19011
 Alpha virt. eigenvalues --    0.19461   0.21492   0.22325   0.26026   0.28184
 Alpha virt. eigenvalues --    0.31976   0.32765   0.32863   0.33249   0.37667
 Alpha virt. eigenvalues --    0.49191   0.52032   0.52693   0.52976   0.53348
 Alpha virt. eigenvalues --    0.54182   0.56597   0.56641   0.58880   0.60497
 Alpha virt. eigenvalues --    0.60876   0.62303   0.62700   0.62741   0.63247
 Alpha virt. eigenvalues --    0.63605   0.63954   0.64738   0.64844   0.69415
 Alpha virt. eigenvalues --    0.70825   0.70902   0.77641   0.82766   0.83429
 Alpha virt. eigenvalues --    0.84365   0.84651   0.84985   0.85488   0.86841
 Alpha virt. eigenvalues --    0.90071   0.90417   0.94452   0.95770   0.96069
 Alpha virt. eigenvalues --    1.00754   1.01452   1.05607   1.07325   1.07578
 Alpha virt. eigenvalues --    1.10671   1.17574   1.20218   1.21285   1.24028
 Alpha virt. eigenvalues --    1.24883   1.29364   1.31888   1.33613   1.36391
 Alpha virt. eigenvalues --    1.36393   1.41190   1.41548   1.42675   1.44786
 Alpha virt. eigenvalues --    1.45968   1.47864   1.50386   1.54812   1.72098
 Alpha virt. eigenvalues --    1.77681   1.78367   1.83434   1.86224   1.87791
 Alpha virt. eigenvalues --    1.88115   1.89380   1.91175   1.91903   1.94356
 Alpha virt. eigenvalues --    1.94538   1.98742   2.00082   2.00502   2.01683
 Alpha virt. eigenvalues --    2.03661   2.05831   2.06126   2.11456   2.19192
 Alpha virt. eigenvalues --    2.24369   2.28123   2.29788   2.30109   2.31629
 Alpha virt. eigenvalues --    2.33328   2.35046   2.39021   2.40582   2.43064
 Alpha virt. eigenvalues --    2.43370   2.44004   2.46225   2.47227   2.48654
 Alpha virt. eigenvalues --    2.51524   2.55603   2.55705   2.59225   2.60871
 Alpha virt. eigenvalues --    2.62217   2.62403   2.64404   2.64614   2.66105
 Alpha virt. eigenvalues --    2.70462   2.74653   2.76060   2.78141   2.83730
 Alpha virt. eigenvalues --    2.87931   3.00416   3.05135   3.08884   3.17861
 Alpha virt. eigenvalues --    3.20163   3.26391   3.26633   3.28188   3.29675
 Alpha virt. eigenvalues --    3.39738   3.45019   3.48780   3.51846   3.84494
 Alpha virt. eigenvalues --    3.92597   4.15223   4.17193   4.18193   4.19124
 Alpha virt. eigenvalues --    4.22017   4.37879   4.44789   4.53333   4.67439
 Alpha virt. eigenvalues --    4.96543
     Molecular Orbital Coefficients:
                          30        31        32        33        34
                           O         O         O         O         O
     Eigenvalues --    -0.34159  -0.33906  -0.29611  -0.25777  -0.21937
   1 1   C  1S         -0.01146  -0.00001  -0.00001   0.00001  -0.00000
   2        2S          0.02988   0.00002   0.00003  -0.00002   0.00000
   3        2PX         0.03829   0.00006  -0.00007  -0.00000   0.00013
   4        2PY         0.16711  -0.00002  -0.00003  -0.00001   0.00002
   5        2PZ        -0.00010   0.14761  -0.22782   0.00388   0.25253
   6        3S          0.02581   0.00004  -0.00000  -0.00007   0.00006
   7        3PX         0.00930   0.00005  -0.00009  -0.00001   0.00011
   8        3PY         0.05257   0.00000  -0.00004  -0.00002   0.00005
   9        3PZ        -0.00005   0.09804  -0.16401   0.00737   0.19564
  10        4XX         0.01242  -0.00001  -0.00000   0.00001  -0.00001
  11        4YY        -0.01730   0.00001   0.00000  -0.00000   0.00000
  12        4ZZ         0.00029   0.00001   0.00000  -0.00001   0.00001
  13        4XY        -0.00023  -0.00000  -0.00000   0.00000   0.00000
  14        4XZ        -0.00001  -0.00720  -0.00425   0.01651  -0.00633
  15        4YZ        -0.00000   0.00670  -0.00497   0.00017   0.00416
  16 2   C  1S          0.00161  -0.00000  -0.00000   0.00000   0.00000
  17        2S         -0.00550   0.00000  -0.00000  -0.00001  -0.00000
  18        2PX         0.00790   0.00020  -0.00009  -0.00018   0.00011
  19        2PY        -0.16655   0.00015  -0.00001  -0.00007   0.00005
  20        2PZ        -0.00001   0.23231  -0.09943  -0.23569   0.15860
  21        3S         -0.00064  -0.00000   0.00003   0.00002  -0.00006
  22        3PX         0.00694   0.00011  -0.00003  -0.00011   0.00008
  23        3PY        -0.06197   0.00008   0.00001  -0.00005   0.00002
  24        3PZ        -0.00002   0.14719  -0.06237  -0.17411   0.13601
  25        4XX         0.00990   0.00000  -0.00001  -0.00000   0.00001
  26        4YY        -0.00784   0.00001   0.00000  -0.00001  -0.00000
  27        4ZZ         0.00003  -0.00001   0.00000   0.00000  -0.00000
  28        4XY         0.00330   0.00000   0.00000  -0.00000  -0.00001
  29        4XZ        -0.00001   0.00636  -0.00717   0.00013   0.00896
  30        4YZ        -0.00000   0.00687   0.00776  -0.00932  -0.01162
  31 3   C  1S          0.00161  -0.00000   0.00001   0.00001  -0.00001
  32        2S         -0.00551   0.00001  -0.00002  -0.00001   0.00001
  33        2PX         0.00773   0.00011   0.00003  -0.00014  -0.00009
  34        2PY         0.16653  -0.00002   0.00001  -0.00007  -0.00005
  35        2PZ        -0.00009   0.23231   0.09942  -0.23570  -0.15859
  36        3S         -0.00068   0.00003  -0.00010  -0.00006   0.00006
  37        3PX         0.00685   0.00008  -0.00001  -0.00012  -0.00007
  38        3PY         0.06197   0.00001   0.00001  -0.00006  -0.00006
  39        3PZ        -0.00005   0.14719   0.06236  -0.17411  -0.13601
  40        4XX         0.00991  -0.00000   0.00000   0.00000  -0.00000
  41        4YY        -0.00784   0.00000   0.00001   0.00000  -0.00001
  42        4ZZ         0.00003  -0.00000  -0.00001  -0.00000   0.00001
  43        4XY        -0.00332  -0.00000   0.00001   0.00001  -0.00001
  44        4XZ        -0.00001   0.00636   0.00717   0.00013  -0.00896
  45        4YZ         0.00001  -0.00687   0.00776   0.00932  -0.01162
  46 4   C  1S         -0.01147   0.00001   0.00000  -0.00001  -0.00000
  47        2S          0.02989  -0.00001  -0.00001   0.00001   0.00001
  48        2PX         0.03850   0.00005   0.00006   0.00003  -0.00004
  49        2PY        -0.16711   0.00011   0.00011   0.00000  -0.00009
  50        2PZ         0.00001   0.14762   0.22781   0.00387  -0.25253
  51        3S          0.02591  -0.00005   0.00007   0.00006  -0.00002
  52        3PX         0.00940   0.00005   0.00003  -0.00001  -0.00007
  53        3PY        -0.05262   0.00008   0.00004  -0.00001  -0.00003
  54        3PZ        -0.00001   0.09804   0.16401   0.00737  -0.19564
  55        4XX         0.01242  -0.00001  -0.00001   0.00000   0.00001
  56        4YY        -0.01730   0.00000   0.00000   0.00000  -0.00000
  57        4ZZ         0.00029   0.00001   0.00000  -0.00001  -0.00001
  58        4XY         0.00023  -0.00000  -0.00000   0.00000   0.00000
  59        4XZ        -0.00000  -0.00720   0.00425   0.01651   0.00633
  60        4YZ         0.00001  -0.00670  -0.00497  -0.00017   0.00416
  61 5   C  1S          0.00052  -0.00000   0.00001  -0.00001   0.00001
  62        2S         -0.00302  -0.00001  -0.00002   0.00003  -0.00002
  63        2PX        -0.00010   0.00005  -0.00004  -0.00006   0.00000
  64        2PY         0.27155   0.00001   0.00000  -0.00002   0.00005
  65        2PZ        -0.00008   0.00000   0.20281   0.25241  -0.00000
  66        3S          0.01365   0.00007  -0.00012   0.00002  -0.00001
  67        3PX         0.00003   0.00003  -0.00002  -0.00001  -0.00008
  68        3PY         0.10426  -0.00003  -0.00003   0.00000   0.00003
  69        3PZ        -0.00005   0.00000   0.12500   0.17459  -0.00000
  70        4XX         0.01383  -0.00000  -0.00001  -0.00000  -0.00000
  71        4YY        -0.01288   0.00000   0.00000   0.00000  -0.00001
  72        4ZZ        -0.00016  -0.00000   0.00001   0.00000   0.00001
  73        4XY        -0.00001  -0.00000  -0.00001  -0.00000   0.00000
  74        4XZ        -0.00000  -0.01223   0.00000   0.00000   0.01704
  75        4YZ         0.00000   0.00000   0.01620  -0.00840   0.00000
  76 6   C  1S          0.00052   0.00000  -0.00001  -0.00001   0.00001
  77        2S         -0.00302   0.00001   0.00002   0.00003  -0.00002
  78        2PX         0.00009   0.00004  -0.00004   0.00006  -0.00000
  79        2PY        -0.27155   0.00001  -0.00000   0.00002  -0.00005
  80        2PZ        -0.00007  -0.00000  -0.20281   0.25241  -0.00000
  81        3S          0.01365  -0.00007   0.00012   0.00002  -0.00001
  82        3PX        -0.00003   0.00003  -0.00002   0.00001   0.00008
  83        3PY        -0.10426  -0.00002  -0.00003  -0.00000  -0.00002
  84        3PZ        -0.00005   0.00000  -0.12500   0.17459  -0.00000
  85        4XX         0.01383   0.00000   0.00001  -0.00000  -0.00000
  86        4YY        -0.01288  -0.00000  -0.00000   0.00000  -0.00001
  87        4ZZ        -0.00016   0.00000  -0.00001   0.00000   0.00001
  88        4XY        -0.00001   0.00000   0.00000  -0.00000   0.00000
  89        4XZ         0.00000  -0.01223  -0.00000  -0.00000  -0.01704
  90        4YZ        -0.00000   0.00000   0.01620   0.00840  -0.00000
  91 7   C  1S         -0.01147  -0.00001  -0.00000  -0.00001  -0.00000
  92        2S          0.02989   0.00001   0.00001   0.00001   0.00001
  93        2PX        -0.03849   0.00006   0.00006  -0.00003   0.00004
  94        2PY         0.16711   0.00011   0.00011   0.00000   0.00009
  95        2PZ         0.00002  -0.14761  -0.22782   0.00387  -0.25252
  96        3S          0.02591   0.00005  -0.00007   0.00006  -0.00002
  97        3PX        -0.00939   0.00005   0.00003   0.00001   0.00007
  98        3PY         0.05262   0.00008   0.00004   0.00001   0.00003
  99        3PZ        -0.00001  -0.09804  -0.16401   0.00737  -0.19563
 100        4XX         0.01242   0.00001   0.00001   0.00000   0.00001
 101        4YY        -0.01730  -0.00000  -0.00000   0.00000  -0.00000
 102        4ZZ         0.00029  -0.00001  -0.00000  -0.00001  -0.00001
 103        4XY         0.00023   0.00000   0.00000   0.00000   0.00000
 104        4XZ         0.00000  -0.00720   0.00425  -0.01651  -0.00633
 105        4YZ        -0.00001  -0.00670  -0.00497   0.00017  -0.00416
 106 8   C  1S         -0.01146   0.00001   0.00001   0.00001  -0.00000
 107        2S          0.02988  -0.00002  -0.00003  -0.00002   0.00000
 108        2PX        -0.03829   0.00005  -0.00007   0.00000  -0.00013
 109        2PY        -0.16711  -0.00002  -0.00003   0.00001  -0.00003
 110        2PZ        -0.00010  -0.14761   0.22782   0.00388   0.25252
 111        3S          0.02581  -0.00004   0.00000  -0.00007   0.00006
 112        3PX        -0.00930   0.00005  -0.00009   0.00000  -0.00011
 113        3PY        -0.05257   0.00000  -0.00005   0.00002  -0.00006
 114        3PZ        -0.00005  -0.09804   0.16401   0.00737   0.19563
 115        4XX         0.01242   0.00001   0.00000   0.00001  -0.00001
 116        4YY        -0.01730  -0.00001  -0.00000  -0.00000   0.00000
 117        4ZZ         0.00029  -0.00001  -0.00000  -0.00001   0.00001
 118        4XY        -0.00024   0.00000   0.00000   0.00000   0.00000
 119        4XZ         0.00001  -0.00720  -0.00425  -0.01651   0.00633
 120        4YZ         0.00000   0.00670  -0.00497  -0.00017  -0.00416
 121 9   C  1S          0.00161   0.00000   0.00000   0.00000   0.00000
 122        2S         -0.00550  -0.00001   0.00000  -0.00001  -0.00000
 123        2PX        -0.00791   0.00021  -0.00009   0.00018  -0.00011
 124        2PY         0.16655   0.00015  -0.00001   0.00007  -0.00005
 125        2PZ        -0.00001  -0.23231   0.09943  -0.23570   0.15860
 126        3S         -0.00064   0.00000  -0.00003   0.00002  -0.00007
 127        3PX        -0.00694   0.00012  -0.00003   0.00011  -0.00008
 128        3PY         0.06197   0.00008   0.00001   0.00005  -0.00002
 129        3PZ        -0.00002  -0.14719   0.06237  -0.17411   0.13601
 130        4XX         0.00990  -0.00000   0.00001  -0.00000   0.00001
 131        4YY        -0.00784  -0.00001  -0.00000  -0.00001  -0.00000
 132        4ZZ         0.00003   0.00001  -0.00000   0.00000  -0.00000
 133        4XY         0.00330   0.00000  -0.00000  -0.00000  -0.00001
 134        4XZ         0.00001   0.00636  -0.00717  -0.00013  -0.00896
 135        4YZ         0.00000   0.00687   0.00776   0.00932   0.01162
 136 10  C  1S          0.00161   0.00000  -0.00001   0.00001  -0.00001
 137        2S         -0.00551  -0.00001   0.00002  -0.00001   0.00001
 138        2PX        -0.00774   0.00010   0.00003   0.00014   0.00009
 139        2PY        -0.16653  -0.00002   0.00001   0.00007   0.00005
 140        2PZ        -0.00009  -0.23231  -0.09943  -0.23570  -0.15859
 141        3S         -0.00068  -0.00003   0.00010  -0.00006   0.00006
 142        3PX        -0.00686   0.00008  -0.00001   0.00012   0.00007
 143        3PY        -0.06197   0.00001   0.00001   0.00006   0.00006
 144        3PZ        -0.00005  -0.14719  -0.06237  -0.17412  -0.13601
 145        4XX         0.00991   0.00000  -0.00000   0.00000  -0.00000
 146        4YY        -0.00784  -0.00000  -0.00001   0.00000  -0.00001
 147        4ZZ         0.00003   0.00000   0.00001  -0.00000   0.00001
 148        4XY        -0.00332   0.00000  -0.00001   0.00001  -0.00001
 149        4XZ         0.00001   0.00636   0.00717  -0.00013   0.00896
 150        4YZ        -0.00001  -0.00687   0.00776  -0.00932   0.01162
 151 11  H  1S         -0.12649   0.00004   0.00000  -0.00000   0.00002
 152        2S         -0.14936   0.00003  -0.00001  -0.00000   0.00001
 153        3PX        -0.00013   0.00000  -0.00000  -0.00000   0.00000
 154        3PY        -0.00217   0.00000  -0.00000  -0.00000   0.00000
 155        3PZ        -0.00000   0.00318  -0.00575  -0.00003   0.00684
 156 12  H  1S          0.05981  -0.00006   0.00001   0.00001  -0.00001
 157        2S          0.06423  -0.00006   0.00002   0.00002  -0.00001
 158        3PX         0.00216   0.00000  -0.00000  -0.00000   0.00000
 159        3PY        -0.00138   0.00000  -0.00000  -0.00000   0.00000
 160        3PZ        -0.00000   0.00535  -0.00262  -0.00615   0.00428
 161 13  H  1S          0.05992  -0.00002  -0.00001   0.00000   0.00001
 162        2S          0.06434  -0.00002  -0.00002   0.00000   0.00002
 163        3PX         0.00216   0.00000   0.00000  -0.00000  -0.00000
 164        3PY         0.00138   0.00000   0.00000  -0.00000  -0.00000
 165        3PZ        -0.00000   0.00535   0.00262  -0.00615  -0.00428
 166 14  H  1S         -0.12649   0.00004   0.00003   0.00001  -0.00002
 167        2S         -0.14935   0.00004   0.00003   0.00001  -0.00004
 168        3PX        -0.00013   0.00000   0.00000   0.00000  -0.00000
 169        3PY         0.00217   0.00000   0.00000   0.00000  -0.00000
 170        3PZ        -0.00000   0.00318   0.00575  -0.00003  -0.00684
 171 15  H  1S         -0.12649  -0.00004  -0.00004   0.00001  -0.00002
 172        2S         -0.14935  -0.00004  -0.00004   0.00001  -0.00004
 173        3PX         0.00013   0.00000   0.00000  -0.00000   0.00000
 174        3PY        -0.00217   0.00000   0.00000  -0.00000   0.00000
 175        3PZ        -0.00000  -0.00318  -0.00575  -0.00003  -0.00684
 176 16  H  1S         -0.12649  -0.00004  -0.00000  -0.00000   0.00002
 177        2S         -0.14937  -0.00003   0.00001  -0.00000   0.00001
 178        3PX         0.00013   0.00000  -0.00000   0.00000  -0.00000
 179        3PY         0.00217   0.00000  -0.00000   0.00000  -0.00000
 180        3PZ        -0.00000  -0.00318   0.00575  -0.00003   0.00684
 181 17  H  1S          0.05981   0.00006  -0.00001   0.00001  -0.00001
 182        2S          0.06423   0.00007  -0.00002   0.00002  -0.00001
 183        3PX        -0.00216   0.00000  -0.00000   0.00000  -0.00000
 184        3PY         0.00138   0.00000  -0.00000   0.00000  -0.00000
 185        3PZ        -0.00000  -0.00535   0.00262  -0.00615   0.00428
 186 18  H  1S          0.05992   0.00001   0.00001   0.00000   0.00001
 187        2S          0.06433   0.00001   0.00002   0.00001   0.00002
 188        3PX        -0.00216   0.00000   0.00000   0.00000   0.00000
 189        3PY        -0.00138   0.00000   0.00000   0.00000   0.00000
 190        3PZ        -0.00000  -0.00535  -0.00262  -0.00615  -0.00428
                          35        36        37        38        39
                           V         V         V         V         V
     Eigenvalues --    -0.03926  -0.00017   0.03766   0.10782   0.10795
   1 1   C  1S         -0.00000   0.00001   0.00002  -0.00220   0.02113
   2        2S          0.00001  -0.00003  -0.00005   0.00339  -0.03230
   3        2PX         0.00016  -0.00003   0.00008  -0.00420   0.04161
   4        2PY         0.00003  -0.00002   0.00001  -0.01234   0.11939
   5        2PZ         0.26111   0.00413   0.24442   0.19373   0.02013
   6        3S         -0.00000  -0.00003   0.00002   0.03607  -0.34646
   7        3PX         0.00011   0.00006   0.00036  -0.00349   0.03289
   8        3PY         0.00006   0.00002   0.00011  -0.03225   0.31208
   9        3PZ         0.30430  -0.00209   0.38985   0.28354   0.02950
  10        4XX         0.00000  -0.00002   0.00001   0.00107  -0.01019
  11        4YY         0.00000   0.00001  -0.00001  -0.00142   0.01372
  12        4ZZ        -0.00000   0.00002   0.00000   0.00001  -0.00022
  13        4XY         0.00000  -0.00000  -0.00001   0.00055  -0.00524
  14        4XZ         0.00633  -0.02598  -0.00421   0.01549   0.00161
  15        4YZ        -0.00151  -0.00025  -0.01286  -0.00531  -0.00056
  16 2   C  1S          0.00000   0.00000  -0.00002  -0.00331   0.03198
  17        2S         -0.00001  -0.00000   0.00007   0.00553  -0.05329
  18        2PX        -0.00013   0.00018  -0.00004  -0.01137   0.10781
  19        2PY        -0.00004   0.00007  -0.00004  -0.00468   0.04460
  20        2PZ        -0.17232   0.25192  -0.09727  -0.27817  -0.02896
  21        3S         -0.00004  -0.00004   0.00019   0.04871  -0.47355
  22        3PX        -0.00015   0.00027  -0.00012  -0.02421   0.22928
  23        3PY        -0.00004   0.00004  -0.00023  -0.01400   0.13434
  24        3PZ        -0.19239   0.34568  -0.16837  -0.46193  -0.04819
  25        4XX         0.00001  -0.00000   0.00000  -0.00128   0.01241
  26        4YY        -0.00001  -0.00001   0.00000   0.00053  -0.00507
  27        4ZZ        -0.00001   0.00001  -0.00000   0.00007  -0.00080
  28        4XY        -0.00001  -0.00001  -0.00001  -0.00180   0.01737
  29        4XZ         0.01352   0.00061   0.01122   0.00889   0.00091
  30        4YZ        -0.01553  -0.01411  -0.01478   0.01114   0.00114
  31 3   C  1S         -0.00001   0.00001  -0.00002  -0.00331   0.03198
  32        2S          0.00002  -0.00002   0.00008   0.00551  -0.05329
  33        2PX        -0.00007  -0.00015  -0.00002  -0.01104   0.10785
  34        2PY        -0.00005  -0.00009  -0.00001   0.00466  -0.04460
  35        2PZ        -0.17232  -0.25192  -0.09727   0.27819   0.02878
  36        3S          0.00006  -0.00009   0.00020   0.04898  -0.47353
  37        3PX        -0.00009  -0.00023  -0.00019  -0.02347   0.22936
  38        3PY        -0.00005  -0.00018  -0.00003   0.01388  -0.13435
  39        3PZ        -0.19238  -0.34568  -0.16836   0.46198   0.04777
  40        4XX         0.00001  -0.00000  -0.00000  -0.00129   0.01241
  41        4YY         0.00001  -0.00001   0.00002   0.00053  -0.00507
  42        4ZZ        -0.00002   0.00001  -0.00001   0.00008  -0.00080
  43        4XY         0.00002  -0.00001   0.00001   0.00181  -0.01737
  44        4XZ         0.01352  -0.00061   0.01122  -0.00889  -0.00092
  45        4YZ         0.01553  -0.01411   0.01478   0.01113   0.00117
  46 4   C  1S          0.00000   0.00001   0.00001  -0.00221   0.02113
  47        2S          0.00001  -0.00003  -0.00005   0.00338  -0.03230
  48        2PX         0.00008   0.00001   0.00001  -0.00441   0.04159
  49        2PY         0.00007   0.00002   0.00014   0.01231  -0.11940
  50        2PZ         0.26111  -0.00413   0.24441  -0.19374  -0.02000
  51        3S         -0.00001  -0.00003   0.00010   0.03606  -0.34647
  52        3PX         0.00012  -0.00013   0.00004  -0.00358   0.03288
  53        3PY         0.00009  -0.00004   0.00017   0.03235  -0.31207
  54        3PZ         0.30430   0.00210   0.38984  -0.28359  -0.02917
  55        4XX         0.00001   0.00000   0.00001   0.00104  -0.01019
  56        4YY         0.00000   0.00001  -0.00001  -0.00143   0.01372
  57        4ZZ        -0.00000  -0.00001  -0.00001   0.00004  -0.00022
  58        4XY         0.00000   0.00000   0.00001  -0.00055   0.00524
  59        4XZ         0.00633   0.02598  -0.00421  -0.01549  -0.00161
  60        4YZ         0.00151  -0.00025   0.01286  -0.00531  -0.00055
  61 5   C  1S          0.00001  -0.00000  -0.00002  -0.00242   0.02335
  62        2S         -0.00002   0.00001   0.00008   0.00557  -0.05395
  63        2PX        -0.00006  -0.00004   0.00006   0.00008   0.00001
  64        2PY         0.00002   0.00002   0.00002  -0.00091   0.00901
  65        2PZ        -0.00000   0.27110  -0.23859   0.00001  -0.00007
  66        3S         -0.00000   0.00001  -0.00016   0.01812  -0.17333
  67        3PX         0.00000  -0.00005  -0.00008   0.00003   0.00001
  68        3PY        -0.00006   0.00015  -0.00009  -0.00601   0.05874
  69        3PZ        -0.00000   0.33860  -0.33793   0.00002  -0.00016
  70        4XX         0.00000  -0.00000  -0.00002  -0.00171   0.01652
  71        4YY         0.00001   0.00000   0.00001   0.00085  -0.00833
  72        4ZZ        -0.00001  -0.00000   0.00001   0.00040  -0.00382
  73        4XY        -0.00000   0.00001  -0.00000   0.00000   0.00000
  74        4XZ        -0.02473  -0.00000   0.00000   0.01784   0.00185
  75        4YZ        -0.00000   0.01590   0.02992  -0.00000   0.00001
  76 6   C  1S         -0.00001   0.00000  -0.00002  -0.00242   0.02335
  77        2S          0.00002  -0.00001   0.00008   0.00557  -0.05395
  78        2PX        -0.00006  -0.00004  -0.00006  -0.00008  -0.00001
  79        2PY         0.00002   0.00002  -0.00002   0.00091  -0.00901
  80        2PZ         0.00000  -0.27110  -0.23859   0.00001  -0.00007
  81        3S          0.00000  -0.00001  -0.00016   0.01813  -0.17333
  82        3PX        -0.00001  -0.00005   0.00008  -0.00003   0.00000
  83        3PY        -0.00006   0.00015   0.00009   0.00601  -0.05875
  84        3PZ         0.00000  -0.33860  -0.33793   0.00002  -0.00016
  85        4XX        -0.00000   0.00000  -0.00002  -0.00171   0.01652
  86        4YY        -0.00001  -0.00000   0.00001   0.00085  -0.00833
  87        4ZZ         0.00001   0.00000   0.00001   0.00040  -0.00382
  88        4XY         0.00000  -0.00001  -0.00000   0.00000   0.00000
  89        4XZ        -0.02473  -0.00000   0.00000  -0.01784  -0.00185
  90        4YZ        -0.00000   0.01590  -0.02992   0.00000  -0.00001
  91 7   C  1S         -0.00000  -0.00001   0.00001  -0.00221   0.02113
  92        2S         -0.00001   0.00003  -0.00005   0.00338  -0.03230
  93        2PX         0.00008   0.00001  -0.00001   0.00440  -0.04158
  94        2PY         0.00007   0.00002  -0.00014  -0.01231   0.11940
  95        2PZ        -0.26110   0.00413   0.24442  -0.19374  -0.02000
  96        3S          0.00002   0.00003   0.00010   0.03606  -0.34649
  97        3PX         0.00012  -0.00013  -0.00004   0.00357  -0.03287
  98        3PY         0.00010  -0.00004  -0.00017  -0.03235   0.31208
  99        3PZ        -0.30430  -0.00210   0.38985  -0.28358  -0.02917
 100        4XX        -0.00001  -0.00000   0.00001   0.00104  -0.01019
 101        4YY        -0.00000  -0.00001  -0.00001  -0.00143   0.01372
 102        4ZZ         0.00000   0.00001  -0.00001   0.00004  -0.00022
 103        4XY        -0.00000  -0.00000   0.00001  -0.00055   0.00524
 104        4XZ         0.00633   0.02598   0.00421   0.01549   0.00161
 105        4YZ         0.00151  -0.00025  -0.01286   0.00531   0.00055
 106 8   C  1S          0.00000  -0.00001   0.00002  -0.00220   0.02113
 107        2S         -0.00001   0.00003  -0.00005   0.00339  -0.03230
 108        2PX         0.00016  -0.00003  -0.00008   0.00420  -0.04160
 109        2PY         0.00003  -0.00002  -0.00002   0.01234  -0.11939
 110        2PZ        -0.26110  -0.00413   0.24442   0.19373   0.02012
 111        3S         -0.00001   0.00003   0.00002   0.03608  -0.34649
 112        3PX         0.00011   0.00006  -0.00036   0.00349  -0.03288
 113        3PY         0.00007   0.00002  -0.00012   0.03224  -0.31209
 114        3PZ        -0.30430   0.00208   0.38985   0.28354   0.02950
 115        4XX        -0.00000   0.00002   0.00001   0.00107  -0.01019
 116        4YY        -0.00000  -0.00001  -0.00001  -0.00142   0.01372
 117        4ZZ         0.00000  -0.00002   0.00000   0.00001  -0.00022
 118        4XY        -0.00000   0.00000  -0.00001   0.00055  -0.00524
 119        4XZ         0.00633  -0.02598   0.00421  -0.01549  -0.00161
 120        4YZ        -0.00151  -0.00025   0.01286   0.00531   0.00056
 121 9   C  1S         -0.00000  -0.00000  -0.00002  -0.00331   0.03198
 122        2S          0.00001   0.00000   0.00007   0.00553  -0.05329
 123        2PX        -0.00013   0.00018   0.00004   0.01138  -0.10782
 124        2PY        -0.00004   0.00007   0.00004   0.00469  -0.04460
 125        2PZ         0.17232  -0.25192  -0.09727  -0.27817  -0.02896
 126        3S          0.00005   0.00004   0.00019   0.04871  -0.47358
 127        3PX        -0.00015   0.00027   0.00012   0.02421  -0.22930
 128        3PY        -0.00004   0.00004   0.00023   0.01401  -0.13434
 129        3PZ         0.19238  -0.34568  -0.16837  -0.46193  -0.04819
 130        4XX        -0.00001   0.00000   0.00000  -0.00128   0.01241
 131        4YY         0.00001   0.00001   0.00000   0.00053  -0.00507
 132        4ZZ         0.00001  -0.00001  -0.00000   0.00007  -0.00080
 133        4XY         0.00001   0.00001  -0.00001  -0.00180   0.01737
 134        4XZ         0.01352   0.00061  -0.01122  -0.00889  -0.00091
 135        4YZ        -0.01553  -0.01411   0.01478  -0.01114  -0.00114
 136 10  C  1S          0.00001  -0.00001  -0.00002  -0.00331   0.03198
 137        2S         -0.00002   0.00002   0.00008   0.00551  -0.05329
 138        2PX        -0.00007  -0.00015   0.00002   0.01104  -0.10785
 139        2PY        -0.00005  -0.00009   0.00001  -0.00466   0.04460
 140        2PZ         0.17231   0.25192  -0.09727   0.27819   0.02878
 141        3S         -0.00006   0.00009   0.00020   0.04898  -0.47355
 142        3PX        -0.00009  -0.00023   0.00019   0.02347  -0.22937
 143        3PY        -0.00005  -0.00018   0.00003  -0.01388   0.13436
 144        3PZ         0.19237   0.34569  -0.16837   0.46197   0.04777
 145        4XX        -0.00001   0.00000  -0.00000  -0.00129   0.01241
 146        4YY        -0.00001   0.00001   0.00002   0.00053  -0.00507
 147        4ZZ         0.00002  -0.00001  -0.00001   0.00008  -0.00080
 148        4XY        -0.00002   0.00001   0.00001   0.00181  -0.01737
 149        4XZ         0.01352  -0.00061  -0.01122   0.00889   0.00092
 150        4YZ         0.01553  -0.01411  -0.01478  -0.01113  -0.00117
 151 11  H  1S          0.00002   0.00003  -0.00001  -0.00323   0.03129
 152        2S          0.00001   0.00009   0.00002  -0.06169   0.59477
 153        3PX         0.00000  -0.00000   0.00000  -0.00035   0.00343
 154        3PY         0.00000  -0.00000   0.00000   0.00036  -0.00345
 155        3PZ         0.00855   0.00038   0.01097   0.00813   0.00085
 156 12  H  1S         -0.00000   0.00001  -0.00004  -0.00615   0.05909
 157        2S         -0.00000   0.00003  -0.00022  -0.06995   0.67497
 158        3PX        -0.00000   0.00001  -0.00000   0.00039  -0.00387
 159        3PY        -0.00000   0.00000  -0.00000   0.00024  -0.00236
 160        3PZ        -0.00625   0.00949  -0.00375  -0.01322  -0.00137
 161 13  H  1S         -0.00003   0.00001  -0.00005  -0.00612   0.05910
 162        2S         -0.00006   0.00006  -0.00027  -0.06981   0.67500
 163        3PX        -0.00000  -0.00000   0.00000   0.00041  -0.00387
 164        3PY        -0.00000  -0.00000   0.00000  -0.00024   0.00236
 165        3PZ        -0.00625  -0.00949  -0.00375   0.01322   0.00137
 166 14  H  1S          0.00000   0.00003  -0.00002  -0.00326   0.03129
 167        2S          0.00001   0.00010  -0.00014  -0.06180   0.59476
 168        3PX         0.00000  -0.00000   0.00000  -0.00036   0.00343
 169        3PY         0.00000   0.00000   0.00000  -0.00036   0.00345
 170        3PZ         0.00855  -0.00038   0.01097  -0.00813  -0.00084
 171 15  H  1S         -0.00000  -0.00003  -0.00002  -0.00326   0.03129
 172        2S         -0.00001  -0.00010  -0.00015  -0.06180   0.59479
 173        3PX         0.00000  -0.00000  -0.00000   0.00036  -0.00343
 174        3PY         0.00000   0.00000  -0.00000   0.00036  -0.00345
 175        3PZ        -0.00855   0.00038   0.01097  -0.00813  -0.00084
 176 16  H  1S         -0.00002  -0.00003  -0.00001  -0.00323   0.03130
 177        2S         -0.00001  -0.00010   0.00003  -0.06169   0.59479
 178        3PX         0.00000  -0.00000  -0.00000   0.00035  -0.00343
 179        3PY         0.00000  -0.00000  -0.00000  -0.00036   0.00345
 180        3PZ        -0.00855  -0.00038   0.01097   0.00813   0.00085
 181 17  H  1S          0.00000  -0.00001  -0.00004  -0.00615   0.05909
 182        2S          0.00001  -0.00003  -0.00022  -0.06997   0.67501
 183        3PX        -0.00000   0.00001   0.00000  -0.00039   0.00387
 184        3PY        -0.00000   0.00000   0.00000  -0.00024   0.00236
 185        3PZ         0.00625  -0.00949  -0.00375  -0.01322  -0.00137
 186 18  H  1S          0.00003  -0.00001  -0.00005  -0.00612   0.05910
 187        2S          0.00006  -0.00006  -0.00027  -0.06981   0.67502
 188        3PX        -0.00000  -0.00000  -0.00000  -0.00041   0.00387
 189        3PY        -0.00000  -0.00000  -0.00000   0.00024  -0.00236
 190        3PZ         0.00625   0.00949  -0.00375   0.01322   0.00137
     Density Matrix:
                           1         2         3         4         5
   1 1   C  1S          2.05426
   2        2S         -0.06582   0.31410
   3        2PX        -0.00092  -0.00134   0.41437
   4        2PY        -0.00022   0.00447  -0.00297   0.40836
   5        2PZ        -0.00000  -0.00000  -0.00004  -0.00001   0.32575
   6        3S         -0.17532   0.26278   0.07853   0.00895  -0.00001
   7        3PX        -0.00220   0.00173   0.14507  -0.00285   0.00005
   8        3PY        -0.00251  -0.01715   0.03641   0.15605   0.00002
   9        3PZ         0.00000  -0.00001   0.00002   0.00000   0.23050
  10        4XX        -0.01581   0.00033   0.00195   0.01179  -0.00001
  11        4YY        -0.01607   0.00039   0.00002  -0.01449   0.00000
  12        4ZZ        -0.01029  -0.01217  -0.00070  -0.00016   0.00000
  13        4XY        -0.00014   0.00015   0.01690  -0.00004  -0.00000
  14        4XZ         0.00000  -0.00001  -0.00000  -0.00001  -0.00210
  15        4YZ         0.00000  -0.00000  -0.00000   0.00001   0.00889
  16 2   C  1S          0.01663  -0.03306   0.06789  -0.03994  -0.00003
  17        2S         -0.03287   0.05607  -0.13490   0.07922   0.00006
  18        2PX        -0.06778   0.13671  -0.23126   0.14185   0.00025
  19        2PY         0.03815  -0.08087   0.14528  -0.06764  -0.00001
  20        2PZ         0.00003  -0.00007   0.00023  -0.00003   0.23251
  21        3S          0.00662   0.02006  -0.13508   0.06908   0.00001
  22        3PX        -0.00796   0.03633  -0.09065   0.03193   0.00013
  23        3PY         0.00773  -0.01288   0.05232  -0.01532   0.00000
  24        3PZ         0.00000  -0.00002   0.00012   0.00001   0.16180
  25        4XX        -0.00440   0.00698   0.00218   0.01103   0.00001
  26        4YY         0.00025  -0.00226   0.00121  -0.01218  -0.00000
  27        4ZZ         0.00153  -0.00359   0.00421  -0.00259  -0.00001
  28        4XY         0.00469  -0.00887   0.01124   0.00145  -0.00001
  29        4XZ         0.00000  -0.00001   0.00001  -0.00001   0.01174
  30        4YZ        -0.00000   0.00001  -0.00001   0.00000  -0.00655
  31 3   C  1S         -0.00325   0.00825  -0.00923   0.01191   0.00000
  32        2S          0.00812  -0.01815   0.02291  -0.03042  -0.00001
  33        2PX         0.00589  -0.01407   0.01678  -0.00959  -0.00002
  34        2PY        -0.01324   0.03492  -0.03200   0.03975   0.00001
  35        2PZ        -0.00000   0.00000  -0.00001  -0.00001  -0.01829
  36        3S         -0.00515  -0.00938   0.02233  -0.03957   0.00006
  37        3PX        -0.00517   0.00099   0.00247   0.02201  -0.00000
  38        3PY        -0.00439   0.01658  -0.01996   0.03418  -0.00002
  39        3PZ         0.00000   0.00000  -0.00002  -0.00003  -0.03241
  40        4XX        -0.00021   0.00089  -0.00167   0.00093   0.00000
  41        4YY        -0.00034   0.00072  -0.00245   0.00317  -0.00001
  42        4ZZ         0.00009   0.00007   0.00013  -0.00063   0.00001
  43        4XY         0.00207  -0.00444   0.00880  -0.00636  -0.00001
  44        4XZ        -0.00000   0.00000  -0.00000  -0.00000  -0.00384
  45        4YZ        -0.00000   0.00000  -0.00001   0.00000  -0.01226
  46 4   C  1S         -0.00332   0.00567  -0.00081   0.00863  -0.00000
  47        2S          0.00567  -0.01176   0.00197  -0.01732   0.00001
  48        2PX        -0.00081   0.00197  -0.03248  -0.00055  -0.00001
  49        2PY        -0.00863   0.01732   0.00055   0.02693  -0.00005
  50        2PZ         0.00000   0.00000  -0.00007  -0.00002  -0.13693
  51        3S          0.02272  -0.03080  -0.01909  -0.07378  -0.00005
  52        3PX        -0.00106   0.00125  -0.02801  -0.00344  -0.00002
  53        3PY        -0.01285   0.01612   0.01489   0.02939  -0.00000
  54        3PZ         0.00000   0.00000  -0.00006  -0.00002  -0.11657
  55        4XX        -0.00038   0.00097   0.00004   0.00044   0.00000
  56        4YY         0.00036  -0.00113  -0.00026  -0.00082  -0.00000
  57        4ZZ        -0.00031   0.00031   0.00000   0.00010  -0.00000
  58        4XY        -0.00003  -0.00001   0.00292   0.00000  -0.00000
  59        4XZ        -0.00000  -0.00000   0.00000   0.00000   0.00042
  60        4YZ        -0.00000   0.00000  -0.00000   0.00000  -0.00015
  61 5   C  1S         -0.00348   0.00842   0.00987   0.01132  -0.00001
  62        2S          0.00812  -0.01795  -0.02160  -0.02574   0.00000
  63        2PX        -0.00579   0.01186   0.01879   0.01182  -0.00000
  64        2PY        -0.01523   0.03614   0.03419   0.03952  -0.00001
  65        2PZ         0.00000  -0.00000   0.00001   0.00000  -0.01253
  66        3S          0.00105  -0.02212  -0.03996  -0.06625   0.00010
  67        3PX         0.01055  -0.01273  -0.06048  -0.05298  -0.00001
  68        3PY        -0.00132   0.01379   0.00268   0.03429   0.00001
  69        3PZ         0.00000  -0.00001  -0.00001  -0.00001  -0.01204
  70        4XX        -0.00004   0.00040   0.00104   0.00020  -0.00000
  71        4YY        -0.00021   0.00046   0.00181   0.00245  -0.00000
  72        4ZZ         0.00004   0.00018   0.00026  -0.00023   0.00000
  73        4XY        -0.00182   0.00355   0.00838   0.00579  -0.00000
  74        4XZ        -0.00000  -0.00000   0.00000  -0.00000   0.00500
  75        4YZ        -0.00000   0.00000  -0.00000  -0.00000  -0.00876
  76 6   C  1S          0.01651  -0.03262  -0.06669  -0.03812   0.00003
  77        2S         -0.03259   0.05629   0.13439   0.07451  -0.00007
  78        2PX         0.06854  -0.13187  -0.24072  -0.13969   0.00015
  79        2PY         0.03875  -0.07933  -0.14370  -0.06259   0.00006
  80        2PZ        -0.00001   0.00001   0.00011   0.00004   0.17229
  81        3S          0.01005   0.01686   0.09566   0.08464  -0.00010
  82        3PX         0.00299  -0.02736   0.01458  -0.01752   0.00007
  83        3PY         0.00792  -0.01039  -0.04575  -0.00790   0.00002
  84        3PZ         0.00001  -0.00001   0.00004   0.00001   0.10187
  85        4XX        -0.00490   0.00793  -0.00188   0.01081  -0.00001
  86        4YY         0.00030  -0.00236  -0.00065  -0.01103   0.00000
  87        4ZZ         0.00147  -0.00354  -0.00373  -0.00254   0.00001
  88        4XY        -0.00481   0.00881   0.01059  -0.00219  -0.00001
  89        4XZ         0.00000  -0.00000  -0.00000  -0.00001  -0.01222
  90        4YZ         0.00000  -0.00000  -0.00000   0.00000  -0.00600
  91 7   C  1S         -0.00446   0.00928   0.01635  -0.00143  -0.00001
  92        2S          0.00928  -0.01970  -0.03211   0.00492   0.00001
  93        2PX        -0.01635   0.03211   0.05829   0.00712  -0.00004
  94        2PY        -0.00143   0.00492  -0.00712  -0.01487   0.00001
  95        2PZ        -0.00000  -0.00000   0.00001   0.00000  -0.01648
  96        3S          0.01480  -0.02455  -0.13987   0.00654   0.00008
  97        3PX        -0.00538   0.00705   0.02070   0.01080   0.00002
  98        3PY        -0.00187   0.00437  -0.05339  -0.01622   0.00002
  99        3PZ         0.00000  -0.00001  -0.00002  -0.00001  -0.02500
 100        4XX        -0.00162   0.00366   0.00893   0.00230  -0.00000
 101        4YY         0.00147  -0.00275  -0.00602  -0.00269   0.00000
 102        4ZZ        -0.00015   0.00033   0.00067   0.00039  -0.00000
 103        4XY        -0.00138   0.00269   0.00469   0.00133  -0.00000
 104        4XZ        -0.00000   0.00000  -0.00001  -0.00000  -0.00854
 105        4YZ         0.00000  -0.00000  -0.00000   0.00000   0.00073
 106 8   C  1S          0.00180  -0.00422  -0.00730  -0.00558   0.00000
 107        2S         -0.00422   0.00878   0.01566   0.01072  -0.00001
 108        2PX         0.00730  -0.01566  -0.02715  -0.01889  -0.00001
 109        2PY         0.00558  -0.01072  -0.01889  -0.01069   0.00001
 110        2PZ         0.00000  -0.00001   0.00001  -0.00001   0.03098
 111        3S         -0.01163   0.02250   0.07902   0.06210  -0.00004
 112        3PX         0.00782  -0.01408  -0.03873  -0.02623   0.00001
 113        3PY         0.00348  -0.00837  -0.02432  -0.02607   0.00001
 114        3PZ         0.00000  -0.00001  -0.00001  -0.00002   0.02316
 115        4XX        -0.00041   0.00080   0.00077   0.00097  -0.00000
 116        4YY         0.00076  -0.00166  -0.00193  -0.00174   0.00000
 117        4ZZ        -0.00001  -0.00013   0.00003  -0.00024   0.00000
 118        4XY         0.00024  -0.00044  -0.00052  -0.00085   0.00000
 119        4XZ        -0.00000   0.00000   0.00000   0.00000   0.00172
 120        4YZ         0.00000  -0.00000  -0.00000  -0.00000  -0.00040
 121 9   C  1S          0.00025  -0.00065  -0.00079  -0.00168   0.00000
 122        2S         -0.00055   0.00090   0.00327   0.00445  -0.00001
 123        2PX         0.00120  -0.00148  -0.00383  -0.00307   0.00001
 124        2PY        -0.00044   0.00178  -0.00220  -0.00429  -0.00000
 125        2PZ        -0.00000   0.00001   0.00000  -0.00000   0.00474
 126        3S         -0.00330   0.00464  -0.00570  -0.00194  -0.00001
 127        3PX         0.00054   0.00010   0.01319   0.00460  -0.00002
 128        3PY        -0.00087   0.00180   0.01005   0.00478  -0.00001
 129        3PZ        -0.00000   0.00001   0.00002   0.00001   0.01806
 130        4XX        -0.00025   0.00055   0.00098   0.00027   0.00000
[...]
 9,-0.0000885,-0.0002598,-0.1873085,-0.0001499,-0.000088,-0.0001488,0.0
 468155,-0.051768,-0.0150193,-0.0001141,0.0674872,0.1403025,0.0001139,-
 0.000061,0.0002012,-0.1494764,-0.0518535,0.0153347,-0.0000947,-0.06717
 18,0.140388,0.0002587,-0.0001484,0.0001729,-0.1494763,-0.0061905,-0.14
 56235,-0.000232,-0.0910866,0.0294281,0.0002035,-0.0001943,0.0002608,-0
 .1354607,-0.005802,0.1456815,-0.0000459,0.0911446,0.0290399,0.0000079,
 -0.0000831,-0.0000505,-0.1354611,0.0686512,-0.0399802,0.0000383,0.0255
 378,-0.1047306,-0.0001769,0.0000804,-0.0001055,0.1282935,-0.0754267,0.
 0842916,0.0002779,0.0911716,0.0286735,-0.0001649,0.0002832,-0.0001577,
 0.1332358,-0.0757142,-0.0841206,0.00017,-0.0910006,0.0289609,0.0000307
 ,0.0001647,0.0000229,0.1332361,0.0686744,0.0396956,0.0000895,-0.025822
 4,-0.1047539,-0.0001219,0.0000474,-0.0001929,0.1282935,0.0686744,0.039
 6956,0.0000894,-0.0258224,-0.1047538,-0.000122,0.0000472,-0.0001916,0.
 1282935,0.0686512,-0.0399802,0.0000382,0.0255378,-0.1047306,-0.0001772
 ,0.0000804,-0.0001081,0.1282935,-0.0754266,0.0842916,0.0002779,0.09117
 17,0.0286735,-0.0001649,0.0002814,-0.0001574,0.1332358,-0.0757142,-0.0
 841206,0.0001701,-0.0910007,0.0289609,0.0000305,0.0001665,0.0000236,0.
 1332361\Polar=180.2491203,-0.0421899,128.7048601,-0.1545862,0.059506,3
 6.1126252\Quadrupole=3.4312188,3.1096128,-6.5408316,-0.0002566,-0.0106
 935,0.0061978\PG=C01 [X(C10H8)]\NImag=0\\0.70743310,0.05025681,0.75047
 590,-0.00058447,0.00034213,0.13241635,-0.33871656,-0.15216511,0.000202
 22,0.77525872,-0.09066676,-0.19824386,0.00000795,-0.00508192,0.6790816
 6,0.00024169,0.00007384,-0.05907149,-0.00069403,0.00035705,0.13139394,
 0.03105388,-0.02809772,-0.00004281,-0.12495662,-0.03328142,0.00004634,
 0.77527512,-0.07260880,-0.03038903,0.00005328,0.03297215,-0.31337525,-
 0.00019675,0.00492508,0.67906526,-0.00007140,0.00000552,0.00789011,0.0
 0008884,-0.00012574,-0.06179874,-0.00068689,0.00034647,0.13139392,-0.0
 5830757,-0.00327242,0.00005524,0.03121897,0.07250774,0.00002151,-0.338
 31765,0.09089616,0.00035777,0.70726826,0.00336674,-0.00078119,-0.00000
 102,0.02799666,-0.03055398,-0.00005470,0.15239452,-0.19864234,-0.00025
 303,-0.05018504,0.75064060,0.00005954,0.00000612,-0.00482059,-0.000007
 05,-0.00010245,0.00788997,0.00039731,-0.00018709,-0.05907184,-0.000648
 88,0.00045083,0.13241649,0.03699145,0.02920036,-0.00001506,-0.01848089
 ,-0.03743890,-0.00001177,-0.06259737,0.03264690,0.00009480,-0.24054051
 ,-0.10698237,0.00012025,0.71786977,0.04465936,-0.02023943,-0.00006443,
 -0.01640576,-0.02716654,0.00000468,-0.00469082,0.04185178,0.00002788,-
 0.07626791,-0.17379256,0.00001175,-0.00004541,0.66211198,-0.00000516,-
 0.00004782,0.00547883,0.00000175,0.00002724,-0.00705016,0.00007080,-0.
 00001217,0.00624351,0.00013994,0.00004473,-0.06456867,-0.00060016,0.00
 032345,0.15834223,-0.24023959,0.10709113,0.00025721,-0.06264297,-0.032
 47553,0.00005304,-0.01839255,0.03742448,0.00003617,0.03687010,-0.02929
 402,-0.00005250,-0.14158309,-0.00011049,0.00007471,0.71786977,0.076376
 67,-0.17409316,-0.00015221,0.00486219,0.04189733,0.00001770,0.01639135
 ,-0.02725480,-0.00003053,-0.04475303,-0.02011818,0.00003157,-0.0001105
 2,-0.27620667,-0.00013111,-0.00004524,0.66211198,0.00023750,-0.0001852
 0,-0.06456893,0.00007696,0.00005775,0.00624355,0.00002270,-0.00005310,
 -0.00705023,-0.00006237,0.00001500,0.00547893,0.00007464,-0.00013108,-
 0.07187314,-0.00059986,0.00032366,0.15834223,-0.06875217,-0.00994795,0
 .00007095,0.01334764,0.02650693,0.00000905,0.00879315,-0.01954185,-0.0
 0002262,-0.01626683,0.00124581,0.00002393,0.03687012,-0.04475307,-0.00
 006243,-0.24054069,-0.07626799,0.00013949,0.70726816,0.01008632,0.0156
 3956,-0.00000295,0.00626968,0.00005868,-0.00001049,0.00129685,-0.00222
 682,-0.00000243,0.00124581,-0.00570142,-0.00000841,-0.02929402,-0.0201
 1819,0.00001495,-0.10698248,-0.17379262,0.00004443,-0.05018470,0.75064
 061,0.00008389,0.00001852,0.00341249,-0.00000394,-0.00003218,0.0059123
 3,-0.00000924,0.00001991,-0.00060629,0.00002391,-0.00000839,0.00529278
 ,-0.00005245,0.00003154,0.00547893,0.00011973,0.00001153,-0.06456865,-
 0.00064841,0.00045083,0.13241650,-0.01627089,-0.00122850,0.00002233,0.
 00882306,0.01952373,0.00000242,0.01329382,-0.02652864,-0.00002494,-0.0
 6875217,0.01008633,0.00008383,-0.24023977,0.07637674,0.00023734,0.0369
 9147,0.04465940,-0.00000506,-0.05830760,0.00336674,0.00005949,0.707432
 99,-0.00122850,-0.00569737,-0.00000572,-0.00131497,-0.00225670,0.00000
 035,-0.00629139,0.00011245,0.00000303,-0.00994795,0.01563956,0.0000185
 2,0.10709123,-0.17409322,-0.00018514,0.02920036,-0.02023944,-0.0000478
 4,-0.00327242,-0.00078119,0.00000609,0.05025648,0.75047590,0.00002234,
 -0.00000576,0.00529278,-0.00001097,-0.00002200,-0.00060631,-0.00001195
 ,0.00002474,0.00591237,0.00007104,-0.00000298,0.00341249,0.00025708,-0
 .00015226,-0.06456891,-0.00001501,-0.00006438,0.00547883,0.00005526,-0
 .00000101,-0.00482060,-0.00058418,0.00034394,0.13241637,0.00882306,-0.
 00131497,-0.00001094,-0.00538310,-0.00914778,0.,-0.00672291,0.01043683
 ,0.00001408,0.01334764,0.00626968,-0.00000395,-0.06264297,0.00486221,0
 .00007702,-0.01848090,-0.01640577,0.00000169,0.03121898,0.02799666,-0.
 00000702,-0.33871625,-0.15216494,0.00020208,0.77525836,0.01952373,-0.0
 0225670,-0.00002199,-0.00914778,-0.01740177,-0.00000142,-0.01039617,0.
 01806523,0.00002264,0.02650693,0.00005868,-0.00003219,-0.03247555,0.04
 189736,0.00005769,-0.03743891,-0.02716658,0.00002721,0.07250778,-0.030
 55398,-0.00010243,-0.09066654,-0.19824378,0.00000775,-0.00508219,0.679
 08216,0.00000244,0.00000035,-0.00060631,0.,-0.00000143,0.00009550,0.00
 000071,0.00000030,0.00016350,0.00000905,-0.00001048,0.00591233,0.00005
 299,0.00001766,0.00624355,-0.00001180,0.00000467,-0.00705016,0.0000215
 8,-0.00005472,0.00788997,0.00024160,0.00007374,-0.05907153,-0.00069337
 ,0.00035728,0.13139392,0.01329382,-0.00629138,-0.00001196,-0.00672291,
 -0.01039617,0.00000071,-0.00535311,0.00912800,0.00001171,0.00879315,0.
 00129685,-0.00000925,-0.01839256,0.01639136,0.00002268,-0.06259738,-0.
 00469084,0.00007081,-0.33831736,0.15239435,0.00039730,0.03105390,-0.02
 809772,-0.00004296,-0.12495661,-0.03328143,0.00004636,0.77527474,-0.02
 652863,0.00011245,0.00002470,0.01043683,0.01806523,0.00000031,0.009128
 00,-0.01743173,-0.00002104,-0.01954185,-0.00222682,0.00001992,0.037424
 50,-0.02725483,-0.00005311,0.03264692,0.04185181,-0.00001211,0.0908959
 6,-0.19864226,-0.00018710,-0.07260884,-0.03038904,0.00005327,0.0329721
 6,-0.31337574,-0.00019708,0.00492529,0.67906573,-0.00002496,0.00000302
 ,0.00591238,0.00001409,0.00002265,0.00016350,0.00001170,-0.00002105,0.
 00009547,-0.00002264,-0.00000243,-0.00060629,0.00003622,-0.00003057,-0
 .00705023,0.00009477,0.00002791,0.00624351,0.00035785,-0.00025305,-0.0
 5907187,-0.00007154,0.00000557,0.00789011,0.00008896,-0.00012599,-0.06
 179870,-0.00068767,0.00034636,0.13139392,-0.05890367,0.00020864,0.0000
 2472,0.00456857,-0.02876099,-0.00001945,-0.00465276,-0.00190038,0.0000
 1266,-0.00108925,0.00000945,0.00000068,-0.00482086,0.00134558,0.000011
 52,0.00367251,0.02757324,0.00001694,0.00160296,0.00161705,-0.00000396,
 0.00039386,0.00149406,0.00000071,0.00022356,0.00016549,-0.00000031,0.0
 0016966,-0.00048137,-0.00000059,0.05850305,-0.00057146,-0.34214736,-0.
 00019524,0.00332816,-0.01126352,-0.00001309,-0.00316887,0.00086513,-0.
 00000135,0.00017679,0.00059730,0.00000049,0.00290136,0.00088944,-0.000
 00581,-0.00252575,-0.01240554,-0.00000716,-0.00180456,0.00097325,0.000
 00452,-0.00074463,-0.00072157,0.00000023,0.00009694,0.00025533,0.00000
 017,0.00030806,-0.00005135,-0.00000031,0.00066132,0.36265314,0.0000242
 0,-0.00019594,-0.03599471,0.00000109,0.00002126,0.00361282,0.00001185,
 -0.00000274,0.00829474,0.00000078,0.00000067,-0.00046110,0.00001254,-0
 .00000415,0.00511814,-0.00000230,-0.00003951,0.00299782,-0.00000617,0.
 00000086,-0.00306268,-0.00000073,-0.00000217,0.00015793,-0.00000036,0.
 00000010,-0.00016770,-0.00000008,0.00000053,-0.00009039,-0.00003555,0.
 00021533,0.02497261,-0.01861462,0.01633693,0.00003401,-0.27526233,0.12
 329314,0.00033518,0.00379260,-0.00286785,-0.00000324,0.00154081,-0.000
 60982,0.00000368,-0.00001712,-0.00060903,-0.00000092,-0.00244512,-0.00
 426734,0.00000959,-0.00047411,0.00131197,0.00000174,0.00023372,0.00006
 714,-0.00000124,-0.00002273,-0.00022941,0.00000010,-0.00052883,-0.0002
 4492,-0.00000040,0.00104585,-0.00013585,-0.00000659,0.29019910,-0.0156
 7556,0.01169066,0.00002221,0.12388570,-0.12989674,-0.00019278,0.028792
 60,-0.00988514,-0.00003884,-0.00157378,-0.00577485,-0.00000545,-0.0010
 8480,-0.00051219,0.00000116,-0.00323101,-0.00148304,-0.00000331,-0.000
 20952,0.00069076,0.00000044,0.00035199,0.00016639,0.00000035,-0.000081
 41,-0.00025430,-0.00000021,-0.00029310,0.00009276,0.00000086,0.0003528
 8,0.00088498,0.00000341,-0.13228961,0.13373341,0.00001339,-0.00001213,
 0.00329834,0.00033565,-0.00019219,-0.03676427,0.00001705,-0.00000483,0
 .00248878,0.00000307,-0.00000647,0.00533141,-0.00000123,0.00000065,-0.
 00050517,0.00001025,-0.00000219,0.00905124,0.00000077,-0.00000120,0.00
 035972,-0.00000105,0.00000065,-0.00096452,0.00000019,-0.00000005,0.000
 20499,-0.00000043,0.00000081,-0.00075106,-0.00000627,0.00000392,-0.005
 01125,-0.00036892,0.00021140,0.02564968,0.00154437,0.00059780,0.000004
 43,0.00375003,0.00284548,0.00000048,-0.27566759,-0.12305433,0.00017679
 ,-0.01861562,-0.01628723,0.00001303,-0.00243281,0.00426888,0.00001504,
 -0.00001435,0.00060822,-0.00000013,0.00023303,-0.00006725,-0.00000133,
 -0.00047591,-0.00131006,0.00000006,-0.00052795,0.00024594,-0.00000008,
 -0.00002222,0.00022903,0.00000039,0.00006525,0.00016814,0.00000033,0.0
 0067628,-0.00032807,-0.00000405,0.29063288,0.00156177,-0.00577841,-0.0
 0000880,-0.02881497,-0.00984260,0.00002295,-0.12364689,-0.12949191,0.0
 0007286,0.01572526,0.01169167,-0.00001147,0.00323255,-0.00149534,-0.00
 001024,0.00108399,-0.00051497,-0.00000117,-0.00035210,0.00016708,0.000
 00111,0.00021143,0.00069257,-0.00000002,0.00029412,0.00009187,0.000000
 23,0.00008103,-0.00025481,-0.00000038,-0.00148907,-0.00070022,0.000000
 98,0.00032887,0.00115992,0.00000226,0.13203257,0.13330007,0.00000505,-
 0.00000777,0.00533141,-0.00001982,-0.00001093,0.00248881,0.00017634,0.
 00007216,-0.03676391,0.00003362,0.00002285,0.00329834,0.00001439,-0.00
 001135,0.00905122,0.00000017,-0.00000066,-0.00050517,-0.00000151,0.000
 00080,-0.00096452,0.00000104,0.00000162,0.00035973,-0.00000005,0.00000
 027,-0.00075106,0.00000030,-0.00000054,0.00020499,-0.00000074,-0.00000
 080,0.00027021,-0.00000364,0.00000297,-0.00290853,-0.00019897,-0.00007
 224,0.02564930,-0.00108955,-0.00000668,0.00000067,-0.00464443,0.001909
 40,0.00001511,0.00461026,0.02873494,0.00001739,-0.05890384,-0.00067343
 ,0.00002416,0.00363137,-0.02759955,-0.00001841,-0.00482781,-0.00133622
 ,0.00000981,0.00039262,-0.00149589,-0.00000121,0.00160326,-0.00161808,
 -0.00000605,0.00016994,0.00048101,0.00000003,0.00022313,-0.00016544,-0
 .00000053,0.00020919,0.00000856,-0.00000162,0.00006741,0.00148781,0.00
 000117,0.00104549,-0.00035314,-0.00000672,0.05850170,-0.00017403,0.000
 59760,0.00000087,0.00317789,0.00085680,-0.00000819,-0.00335421,-0.0113
 0517,-0.00000599,0.00010666,-0.34214722,-0.00019685,0.00249943,-0.0123
 6444,-0.00001255,-0.00289199,0.00089639,0.00000039,0.00074280,-0.00072
 034,-0.00000136,0.00180353,0.00097295,0.00000066,-0.00030842,-0.000051
 63,0.00000036,-0.00009689,0.00025576,0.00000037,-0.00000912,-0.0001354
 4,0.00000076,-0.00016940,-0.00070238,-0.00000044,0.00013559,0.00088534
 ,0.00000364,-0.00016219,0.36265452,0.00000056,0.00000068,-0.00046110,0
 .00001591,-0.00000681,0.00829473,-0.00000322,-0.00004041,0.00361278,0.
 00002463,-0.00019606,-0.03599471,0.00000094,0.00001977,0.00299786,0.00
 000882,-0.00000128,0.00511814,0.00000022,0.00000104,0.00015793,-0.0000
 0385,0.00000433,-0.00306268,-0.00000047,-0.00000049,-0.00009039,-0.000
 00048,0.00000045,-0.00016770,-0.00000164,0.00000074,-0.00131025,0.0000
 0011,-0.00000222,0.00027020,-0.00000640,0.00000417,-0.00501125,-0.0000
 3609,0.00021716,0.02497261,0.00160326,-0.00161808,-0.00000604,0.000169
 94,0.00048101,0.00000003,0.00022313,-0.00016544,-0.00000053,0.00039262
 ,-0.00149589,-0.00000121,-0.00482781,-0.00133622,0.00000980,0.00363137
 ,-0.02759955,-0.00001840,-0.05890384,-0.00067350,0.00002411,-0.0010895
 5,-0.00000668,0.00000067,-0.00464443,0.00190940,0.00001509,0.00461026,
 0.02873494,0.00001738,-0.00057110,0.00095084,0.00000148,0.00000127,0.0
 0001060,0.00000019,-0.00001708,0.00006196,0.00000010,-0.00040184,-0.00
 023450,0.00000052,0.05850170,0.00180353,0.00097295,0.00000066,-0.00030
 842,-0.00005163,0.00000035,-0.00009689,0.00025576,0.00000038,0.0007428
 0,-0.00072034,-0.00000136,-0.00289199,0.00089639,0.00000039,0.00249944
 ,-0.01236443,-0.00001254,0.00010660,-0.34214724,-0.00019659,-0.0001740
 2,0.00059760,0.00000087,0.00317790,0.00085680,-0.00000818,-0.00335421,
 -0.01130517,-0.00000598,-0.00094920,0.00042888,0.00000114,-0.00006346,
 -0.00000335,-0.00000005,-0.00005250,0.00003654,0.00000006,-0.00023450,
 -0.00015481,0.,-0.00016214,0.36265454,-0.00000384,0.00000432,-0.003062
 69,-0.00000048,-0.00000049,-0.00009039,-0.00000048,0.00000045,-0.00016
 770,0.00000023,0.00000104,0.00015793,0.00000879,-0.00000128,0.00511815
 ,0.00000091,0.00001969,0.00299785,0.00002464,-0.00019571,-0.03599470,0
 .00000056,0.00000069,-0.00046110,0.00001592,-0.00000683,0.00829472,-0.
 00000323,-0.00004038,0.00361278,0.00000026,-0.00000090,0.00024187,0.00
 000015,-0.00000013,0.00017462,0.00000002,-0.00000007,0.00003587,0.0000
 0052,0.,0.00022148,-0.00003603,0.00021689,0.02497261,0.00039386,0.0014
 9406,0.00000070,0.00022356,0.00016549,-0.00000031,0.00016966,-0.000481
 37,-0.00000059,0.00160296,0.00161705,-0.00000396,0.00367251,0.02757324
 ,0.00001703,-0.00482086,0.00134558,0.00001152,-0.00108925,0.00000945,0
 .00000068,-0.05890368,0.00020869,0.00002468,0.00456857,-0.02876099,-0.
 00001954,-0.00465276,-0.00190038,0.00001267,-0.00040107,0.00023490,0.0
 0000082,-0.00001710,-0.00006187,0.00000002,0.00000136,-0.00001061,0.00
 000018,-0.00057110,-0.00094920,0.00000026,0.00020919,-0.00000912,-0.00
 000163,0.05850305,-0.00074463,-0.00072157,0.00000023,0.00009694,0.0002
 5533,0.00000017,0.00030806,-0.00005135,-0.00000030,-0.00180456,0.00097
 325,0.00000454,-0.00252575,-0.01240554,-0.00000721,0.00290136,0.000889
 44,-0.00000584,0.00017679,0.00059730,0.00000049,-0.00057141,-0.3421473
 7,-0.00019677,0.00332816,-0.01126352,-0.00001315,-0.00316887,0.0008651
 2,-0.00000139,0.00023490,-0.00015558,-0.00000050,0.00005259,0.00003655
 ,-0.00000006,0.00006345,-0.00000344,-0.00000018,0.00095084,0.00042888,
 -0.00000090,0.00000856,-0.00013544,0.00000075,0.00066127,0.36265315,-0
 .00000073,-0.00000216,0.00015793,-0.00000036,0.00000009,-0.00016770,-0
 .00000008,0.00000055,-0.00009039,-0.00000616,0.00000086,-0.00306269,-0
 .00000239,-0.00003941,0.00299782,0.00001250,-0.00000417,0.00511814,0.0
 0000079,0.00000067,-0.00046110,0.00002419,-0.00019775,-0.03599471,0.00
 000114,0.00002132,0.00361281,0.00001185,-0.00000273,0.00829473,0.00000
 082,-0.00000049,0.00022148,0.00000009,0.00000007,0.00003587,0.00000023
 ,-0.00000010,0.00017462,0.00000149,0.00000114,0.00024187,-0.00000162,0
 .00000076,-0.00131025,-0.00003552,0.00021698,0.02497261,0.00023372,0.0
 0006714,-0.00000124,-0.00002273,-0.00022941,0.00000010,-0.00052883,-0.
 00024492,-0.00000039,-0.00047411,0.00131197,0.00000174,-0.00244512,-0.
 00426734,0.00000958,-0.00001712,-0.00060903,-0.00000091,0.00154081,-0.
 00060982,0.00000367,-0.01861462,0.01633694,0.00003397,-0.27526229,0.12
 329321,0.00033468,0.00379261,-0.00286785,-0.00000324,-0.00001710,0.000
 05259,0.00000009,-0.00002926,0.00002144,0.00000012,-0.00014582,0.00007
 460,0.00000017,0.00000127,-0.00006346,0.00000015,0.00006741,-0.0001694
 0,0.00000011,0.00104585,-0.00013585,-0.00000658,0.29019906,0.00035199,
 0.00016639,0.00000035,-0.00008141,-0.00025430,-0.00000021,-0.00029310,
 0.00009276,0.00000086,-0.00020952,0.00069076,0.00000044,-0.00323101,-0
 .00148304,-0.00000329,-0.00108480,-0.00051220,0.00000116,-0.00157378,-
 0.00577485,-0.00000544,-0.01567556,0.01169066,0.00002219,0.12388577,-0
 .12989683,-0.00019253,0.02879259,-0.00988514,-0.00003881,-0.00006187,0
 .00003655,0.00000007,0.00002144,0.00000669,-0.00000006,-0.00007428,0.0
 0004987,0.00000013,0.00001060,-0.00000335,-0.00000013,0.00148781,-0.00
 070238,-0.00000222,0.00035288,0.00088498,0.00000341,-0.13228968,0.1337
 3349,-0.00000106,0.00000065,-0.00096452,0.00000019,-0.00000005,0.00020
 499,-0.00000043,0.00000080,-0.00075106,0.00000075,-0.00000119,0.000359
 72,0.00001025,-0.00000219,0.00905123,-0.00000121,0.00000065,-0.0005051
 7,0.00000304,-0.00000648,0.00533142,0.00001347,-0.00001213,0.00329834,
 0.00033498,-0.00019186,-0.03676426,0.00001713,-0.00000491,0.00248878,0
 .00000002,-0.00000006,0.00003587,0.00000012,-0.00000006,0.00007064,0.0
 0000008,-0.00000003,-0.00003070,0.00000019,-0.00000005,0.00017462,0.00
 000118,-0.00000044,0.00027020,-0.00000627,0.00000395,-0.00501125,-0.00
 036837,0.00021114,0.02564967,-0.00047591,-0.00131006,0.00000005,-0.000
 52795,0.00024594,-0.00000008,-0.00002222,0.00022903,0.00000039,0.00023
 303,-0.00006725,-0.00000133,-0.00001435,0.00060822,-0.00000014,-0.0024
 3281,0.00426888,0.00001507,-0.01861563,-0.01628724,0.00001305,0.001544
 37,0.00059780,0.00000446,0.00375003,0.00284548,0.00000047,-0.27566751,
 -0.12305436,0.00017753,0.00000135,0.00006345,0.00000023,-0.00014582,-0
 .00007428,0.00000008,-0.00002933,-0.00002138,0.00000009,-0.00001708,-0
 .00005250,0.00000002,0.00104549,0.00013559,-0.00000642,0.00006525,0.00
 016814,0.00000033,0.00067628,-0.00032808,-0.00000406,0.29063280,0.0002
 1143,0.00069257,0.,0.00029412,0.00009187,0.00000022,0.00008103,-0.0002
 5481,-0.00000038,-0.00035209,0.00016708,0.00000110,0.00108399,-0.00051
 497,-0.00000117,0.00323255,-0.00149534,-0.00001024,0.01572526,0.011691
 67,-0.00001147,0.00156177,-0.00577841,-0.00000882,-0.02881496,-0.00984
 260,0.00002301,-0.12364692,-0.12949197,0.00007322,-0.00001061,-0.00000
 344,-0.00000010,0.00007460,0.00004987,-0.00000003,-0.00002138,0.000006
 76,-0.00000002,0.00006196,0.00003654,-0.00000007,-0.00035314,0.0008853
 4,0.00000416,-0.00148907,-0.00070022,0.00000097,0.00032887,0.00115992,
 0.00000226,0.13203260,0.13330013,0.00000102,0.00000162,0.00035972,-0.0
 0000005,0.00000028,-0.00075106,0.00000030,-0.00000054,0.00020499,-0.00
 000151,0.00000080,-0.00096452,0.00000017,-0.00000066,-0.00050517,0.000
 01439,-0.00001135,0.00905122,0.00003357,0.00002286,0.00329834,0.000005
 07,-0.00000778,0.00533142,-0.00001989,-0.00001101,0.00248881,0.0001772
 1,0.00007265,-0.03676392,0.00000018,-0.00000018,0.00017462,0.00000017,
 0.00000013,-0.00003070,0.00000009,-0.00000002,0.00007064,0.00000010,0.
 00000006,0.00003587,-0.00000672,0.00000364,-0.00501125,-0.00000074,-0.
 00000081,0.00027021,-0.00000363,0.00000296,-0.00290853,-0.00019975,-0.
 00007265,0.02564931\\0.00008753,0.00018836,-0.00000026,-0.00002978,-0.
 00003022,0.00000021,-0.00002965,0.00003027,-0.00000009,0.00008717,-0.0
 0018849,-0.00000043,0.00000046,0.00057562,0.00000061,-0.00000054,-0.00
 057560,-0.00000012,-0.00008705,0.00018846,0.,-0.00008742,-0.00018834,-
 0.00000033,0.00002968,0.00003004,0.00000017,0.00002960,-0.00003008,-0.
 00000019,-0.00001536,-0.00003446,0.00000015,-0.00004114,-0.00006370,-0
 .00000009,-0.00004106,0.00006376,0.00000020,-0.00001530,0.00003448,0.0
 0000008,0.00001528,-0.00003447,0.,0.00001535,0.00003446,0.00000017,0.0
 0004117,0.00006372,-0.00000010,0.00004107,-0.00006378,0.00000003\\\@
 The archive entry for this job was punched.


 THERE ARE PEOPLE SO ADDICTED TO EXAGERATING THEY
 CAN'T TELL THE TRUTH WITHOUT LYING. -- FORTUNE COOKIE
 Job cpu time:       0 days  0 hours 19 minutes 40.6 seconds.
 Elapsed time:       0 days  0 hours  4 minutes 57.1 seconds.
 File lengths (MBytes):  RWF=    161 Int=      0 D2E=      0 Chk=     10 Scr=      2
 Normal termination of Gaussian 16 at Tue Jun  7 16:39:10 2022.
