Naphthalene_Optimisation_Frequencies_PBE1PBE__GD3BJ__Toluene_6_31G_d_p_ 
Freq      RPBE1PBE                                                    6-31G(d,p)          
Number of atoms                            I               18
Info1-9                                    I   N=           9
          28          28        1002           0           0         100
           6          18       -1302
Full Title                                 C   N=           6
Naphthalene_Optimisation_Frequencies_PBE1PBE__GD3BJ__Toluene
_6_31G_d_p_ 
Route                                      C   N=          12
#p Opt Freq PBE1PBE/6-31G(d,p) SCRF=(Solvent=Toluene) Empiri
calDispersion=(GD3BJ) Symmetry=(Tight) Population=(Regular) 
Density=(Current)       
Charge                                     I                0
Multiplicity                               I                1
Number of electrons                        I               68
Number of alpha electrons                  I               34
Number of beta electrons                   I               34
Number of basis functions                  I              190
Number of independent functions            I              190
Number of point charges in /Mol/           I                0
Number of translation vectors              I                0
Atomic numbers                             I   N=          18
           6           6           6           6           6           6
           6           6           6           6           1           1
           1           1           1           1           1           1
Nuclear charges                            R   N=          18
  6.00000000E+00  6.00000000E+00  6.00000000E+00  6.00000000E+00  6.00000000E+00
  6.00000000E+00  6.00000000E+00  6.00000000E+00  6.00000000E+00  6.00000000E+00
  1.00000000E+00  1.00000000E+00  1.00000000E+00  1.00000000E+00  1.00000000E+00
  1.00000000E+00  1.00000000E+00  1.00000000E+00
Current cartesian coordinates              R   N=          54
 -2.34412099E+00 -2.64398477E+00 -3.34013206E-07 -4.58447526E+00 -1.33534659E+00
 -4.26534550E-07 -4.58447537E+00  1.33534653E+00  1.50686495E-06 -2.34412103E+00
  2.64398475E+00  1.57743492E-06  4.77508471E-17  1.34969158E+00 -1.46719506E-06
  8.49814460E-08 -1.34969153E+00 -1.50020009E-06  2.34412087E+00 -2.64398470E+00
  1.57862644E-06  2.34412088E+00  2.64398470E+00 -2.89566477E-07  4.58447538E+00
  1.33534635E+00 -3.88364650E-07  4.58447543E+00 -1.33534633E+00  1.49023549E-06
 -2.33701648E+00 -4.69823088E+00 -5.89712703E-06 -6.36780485E+00 -2.35075461E+00
  1.89303321E-06 -6.36780484E+00  2.35075459E+00 -1.63033296E-06 -2.33701652E+00
  4.69823084E+00  5.32715315E-07  2.33701683E+00 -4.69823077E+00  5.82080791E-07
  2.33701676E+00  4.69823080E+00 -6.08307204E-06  6.36780457E+00  2.35075495E+00
  1.76012811E-06  6.36780464E+00 -2.35075487E+00 -1.64115196E-06
Number of symbols in /Mol/                 I                0
Int Atom Types                             I   N=          18
           0           0           0           0           0           0
           0           0           0           0           0           0
           0           0           0           0           0           0
Force Field                                I                0
Atom Types                                 C   N=          18
                                                            
                                                            
                                                            
                                    
MM charges                                 R   N=          18
  0.00000000E+00  0.00000000E+00  0.00000000E+00  0.00000000E+00  0.00000000E+00
  0.00000000E+00  0.00000000E+00  0.00000000E+00  0.00000000E+00  0.00000000E+00
  0.00000000E+00  0.00000000E+00  0.00000000E+00  0.00000000E+00  0.00000000E+00
  0.00000000E+00  0.00000000E+00  0.00000000E+00
Integer atomic weights                     I   N=          18
          12          12          12          12          12          12
          12          12          12          12           1           1
           1           1           1           1           1           1
Real atomic weights                        R   N=          18
  1.20000000E+01  1.20000000E+01  1.20000000E+01  1.20000000E+01  1.20000000E+01
  1.20000000E+01  1.20000000E+01  1.20000000E+01  1.20000000E+01  1.20000000E+01
  1.00782504E+00  1.00782504E+00  1.00782504E+00  1.00782504E+00  1.00782504E+00
  1.00782504E+00  1.00782504E+00  1.00782504E+00
Atom fragment info                         I   N=          18
           0           0           0           0           0           0
           0           0           0           0           0           0
           0           0           0           0           0           0
Atom residue num                           I   N=          18
           0           0           0           0           0           0
           0           0           0           0           0           0
           0           0           0           0           0           0
Nuclear spins                              I   N=          18
           0           0           0           0           0           0
           0           0           0           0           1           1
           1           1           1           1           1           1
Nuclear ZEff                               R   N=          18
 -3.60000000E+00 -3.60000000E+00 -3.60000000E+00 -3.60000000E+00 -3.60000000E+00
 -3.60000000E+00 -3.60000000E+00 -3.60000000E+00 -3.60000000E+00 -3.60000000E+00
 -1.00000000E+00 -1.00000000E+00 -1.00000000E+00 -1.00000000E+00 -1.00000000E+00
 -1.00000000E+00 -1.00000000E+00 -1.00000000E+00
Nuclear ZNuc                               R   N=          18
  6.00000000E+00  6.00000000E+00  6.00000000E+00  6.00000000E+00  6.00000000E+00
  6.00000000E+00  6.00000000E+00  6.00000000E+00  6.00000000E+00  6.00000000E+00
  1.00000000E+00  1.00000000E+00  1.00000000E+00  1.00000000E+00  1.00000000E+00
  1.00000000E+00  1.00000000E+00  1.00000000E+00
Nuclear QMom                               R   N=          18
  0.00000000E+00  0.00000000E+00  0.00000000E+00  0.00000000E+00  0.00000000E+00
  0.00000000E+00  0.00000000E+00  0.00000000E+00  0.00000000E+00  0.00000000E+00
  0.00000000E+00  0.00000000E+00  0.00000000E+00  0.00000000E+00  0.00000000E+00
  0.00000000E+00  0.00000000E+00  0.00000000E+00
Nuclear GFac                               R   N=          18
  0.00000000E+00  0.00000000E+00  0.00000000E+00  0.00000000E+00  0.00000000E+00
  0.00000000E+00  0.00000000E+00  0.00000000E+00  0.00000000E+00  0.00000000E+00
  2.79284600E+00  2.79284600E+00  2.79284600E+00  2.79284600E+00  2.79284600E+00
  2.79284600E+00  2.79284600E+00  2.79284600E+00
MicOpt                                     I   N=          18
          -1          -1          -1          -1          -1          -1
          -1          -1          -1          -1          -1          -1
          -1          -1          -1          -1          -1          -1
Number of residues                         I                0
Number of secondary structures             I                0
Redundant internal dimensions              I   N=           4
          93          19          30          44
Redundant internal coordinate indices      I   N=         372
           1           2           0           0           1           6
           0           0           1          11           0           0
           2           3           0           0           2          12
           0           0           3           4           0           0
           3          13           0           0           4           5
           0           0           4          14           0           0
           5           6           0           0           5           8
           0           0           6           7           0           0
           7          10           0           0           7          15
           0           0           8           9           0           0
           8          16           0           0           9          10
           0           0           9          17           0           0
          10          18           0           0           2           1
           6           0           2           1          11           0
           6           1          11           0           1           2
           3           0           1           2          12           0
           3           2          12           0           2           3
           4           0           2           3          13           0
           4           3          13           0           3           4
           5           0           3           4          14           0
           5           4          14           0           4           5
           6           0           4           5           8           0
           6           5           8           0           1           6
           5           0           1           6           7           0
           5           6           7           0           6           7
          10           0           6           7          15           0
          10           7          15           0           5           8
           9           0           5           8          16           0
           9           8          16           0           8           9
          10           0           8           9          17           0
          10           9          17           0           7          10
           9           0           7          10          18           0
           9          10          18           0           6           1
           2           3           6           1           2          12
          11           1           2           3          11           1
           2          12           2           1           6           5
           2           1           6           7          11           1
           6           5          11           1           6           7
           1           2           3           4           1           2
           3          13          12           2           3           4
          12           2           3          13           2           3
           4           5           2           3           4          14
          13           3           4           5          13           3
           4          14           3           4           5           6
           3           4           5           8          14           4
           5           6          14           4           5           8
           4           5           6           1           4           5
           6           7           8           5           6           1
           8           5           6           7           4           5
           8           9           4           5           8          16
           6           5           8           9           6           5
           8          16           1           6           7          10
           1           6           7          15           5           6
           7          10           5           6           7          15
           6           7          10           9           6           7
          10          18          15           7          10           9
          15           7          10          18           5           8
           9          10           5           8           9          17
          16           8           9          10          16           8
           9          17           8           9          10           7
           8           9          10          18          17           9
          10           7          17           9          10          18
Redundant internal coordinates             R   N=          93
  2.59455606E+00  2.67770397E+00  2.05425839E+00  2.67069313E+00  2.05214957E+00
  2.59455614E+00  2.05214949E+00  2.67770391E+00  2.05425837E+00  2.69938311E+00
  2.67770375E+00  2.67770369E+00  2.59455640E+00  2.05425835E+00  2.59455634E+00
  2.05425839E+00  2.67069269E+00  2.05214952E+00  2.05214950E+00  2.10844259E+00
  2.10291676E+00  2.07182596E+00  2.09945837E+00  2.09532351E+00  2.08840343E+00
  2.09945829E+00  2.08840356E+00  2.09532346E+00  2.10844260E+00  2.10291677E+00
  2.07182594E+00  2.07528441E+00  2.13261654E+00  2.07528436E+00  2.07528436E+00
  2.13261650E+00  2.07528445E+00  2.10844255E+00  2.07182621E+00  2.10291655E+00
  2.10844258E+00  2.07182614E+00  2.10291659E+00  2.09945836E+00  2.09532316E+00
  2.08840379E+00  2.09945832E+00  2.09532319E+00  2.08840380E+00 -1.38748936E-06
 -3.14159186E+00 -3.14159035E+00  4.49009844E-06  5.55555579E-07  3.14159132E+00
  3.14158958E+00 -4.95890854E-06  8.55617357E-07  3.14159095E+00  3.14159133E+00
 -3.88426142E-06  5.17694735E-07  3.14159122E+00 -3.14158956E+00  1.14438590E-06
 -1.32343789E-06 -3.14159213E+00 -3.14159207E+00  2.43801395E-06  7.87791007E-07
 -3.14159004E+00  3.14159165E+00  8.24695474E-07  3.14159134E+00 -5.07670556E-06
  5.35406000E-07  3.14158943E+00 -3.14159214E+00  2.42124382E-06 -1.37414239E-06
 -3.14159212E+00  5.64476756E-07 -3.14158955E+00  3.14159128E+00  1.16009153E-06
 -1.37163550E-06 -3.14159196E+00 -3.14159020E+00  4.52671673E-06  8.26578036E-07
  3.14159095E+00  3.14159142E+00 -3.76168002E-06
ZRed-IntVec                                I   N=          93
           0           0           0           0           0           0
           0           0           0           0           0           0
           0           0           0           0           0           0
           0           0           0           0           0           0
           0           0           0           0           0           0
           0           0           0           0           0           0
           0           0           0           0           0           0
           0           0           0           0           0           0
           0           0           0           0           0           0
           0           0           0           0           0           0
           0           0           0           0           0           0
           0           0           0           0           0           0
           0           0           0           0           0           0
           0           0           0           0           0           0
           0           0           0           0           0           0
           0           0           0
ZRed-FPVec                                 R   N=          93
  0.00000000E+00  0.00000000E+00  0.00000000E+00  0.00000000E+00  0.00000000E+00
  0.00000000E+00  0.00000000E+00  0.00000000E+00  0.00000000E+00  0.00000000E+00
  0.00000000E+00  0.00000000E+00  0.00000000E+00  0.00000000E+00  0.00000000E+00
  0.00000000E+00  0.00000000E+00  0.00000000E+00  0.00000000E+00  0.00000000E+00
  0.00000000E+00  0.00000000E+00  0.00000000E+00  0.00000000E+00  0.00000000E+00
  0.00000000E+00  0.00000000E+00  0.00000000E+00  0.00000000E+00  0.00000000E+00
  0.00000000E+00  0.00000000E+00  0.00000000E+00  0.00000000E+00  0.00000000E+00
  0.00000000E+00  0.00000000E+00  0.00000000E+00  0.00000000E+00  0.00000000E+00
  0.00000000E+00  0.00000000E+00  0.00000000E+00  0.00000000E+00  0.00000000E+00
  0.00000000E+00  0.00000000E+00  0.00000000E+00  0.00000000E+00  0.00000000E+00
  0.00000000E+00  0.00000000E+00  0.00000000E+00  0.00000000E+00  0.00000000E+00
  0.00000000E+00  0.00000000E+00  0.00000000E+00  0.00000000E+00  0.00000000E+00
  0.00000000E+00  0.00000000E+00  0.00000000E+00  0.00000000E+00  0.00000000E+00
  0.00000000E+00  0.00000000E+00  0.00000000E+00  0.00000000E+00  0.00000000E+00
  0.00000000E+00  0.00000000E+00  0.00000000E+00  0.00000000E+00  0.00000000E+00
  0.00000000E+00  0.00000000E+00  0.00000000E+00  0.00000000E+00  0.00000000E+00
  0.00000000E+00  0.00000000E+00  0.00000000E+00  0.00000000E+00  0.00000000E+00
  0.00000000E+00  0.00000000E+00  0.00000000E+00  0.00000000E+00  0.00000000E+00
  0.00000000E+00  0.00000000E+00  0.00000000E+00
ZRed-Constraint1                           R   N=          93
  2.59455606E+00  2.67770397E+00  2.05425839E+00  2.67069313E+00  2.05214957E+00
  2.59455614E+00  2.05214949E+00  2.67770391E+00  2.05425837E+00  2.69938311E+00
  2.67770375E+00  2.67770369E+00  2.59455640E+00  2.05425835E+00  2.59455634E+00
  2.05425839E+00  2.67069269E+00  2.05214952E+00  2.05214950E+00  2.10844259E+00
  2.10291676E+00  2.07182596E+00  2.09945837E+00  2.09532351E+00  2.08840343E+00
  2.09945829E+00  2.08840356E+00  2.09532346E+00  2.10844260E+00  2.10291677E+00
  2.07182594E+00  2.07528441E+00  2.13261654E+00  2.07528436E+00  2.07528436E+00
  2.13261650E+00  2.07528445E+00  2.10844255E+00  2.07182621E+00  2.10291655E+00
  2.10844258E+00  2.07182614E+00  2.10291659E+00  2.09945836E+00  2.09532316E+00
  2.08840379E+00  2.09945832E+00  2.09532319E+00  2.08840380E+00 -1.38748936E-06
 -3.14159186E+00 -3.14159035E+00  4.49009844E-06  5.55555579E-07  3.14159132E+00
  3.14158958E+00 -4.95890854E-06  8.55617357E-07  3.14159095E+00  3.14159133E+00
 -3.88426142E-06  5.17909145E-07  3.14159122E+00 -3.14158956E+00  1.14438590E-06
 -1.32343789E-06 -3.14159213E+00 -3.14159207E+00  2.43796841E-06  7.87791007E-07
 -3.14159004E+00  3.14159165E+00  8.24695474E-07  3.14159134E+00 -5.07670556E-06
  5.35406000E-07  3.14158943E+00 -3.14159214E+00  2.42124382E-06 -1.37398080E-06
 -3.14159212E+00  5.64476756E-07 -3.14158955E+00  3.14159128E+00  1.16009153E-06
 -1.37155455E-06 -3.14159196E+00 -3.14159020E+00  4.52674125E-06  8.26578036E-07
  3.14159095E+00  3.14159142E+00 -3.76168002E-06
ZRed-Constraint2                           R   N=          93
  2.63785878E+00  2.65395003E+00  2.05521360E+00  2.63016063E+00  2.05372797E+00
  2.63784938E+00  2.05373924E+00  2.65395324E+00  2.05521989E+00  2.67235765E+00
  2.65393164E+00  2.65393692E+00  2.63784628E+00  2.05521917E+00  2.63785747E+00
  2.05521338E+00  2.63015967E+00  2.05374044E+00  2.05373841E+00  2.10736855E+00
  2.07562923E+00  2.10018747E+00  2.09422264E+00  2.09358077E+00  2.09538190E+00
  2.09422720E+00  2.09537655E+00  2.09358154E+00  2.10736944E+00  2.07562569E+00
  2.10019014E+00  2.08159015E+00  2.11999922E+00  2.08159590E+00  2.08159244E+00
  2.11999933E+00  2.08159351E+00  2.10736610E+00  2.10019410E+00  2.07562507E+00
  2.10736420E+00  2.10019969E+00  2.07562136E+00  2.09422414E+00  2.09358452E+00
  2.09537664E+00  2.09422657E+00  2.09358084E+00  2.09537788E+00  4.72759975E-04
 -3.14104817E+00 -3.14148508E+00  1.79294768E-04 -1.44571059E-04  3.14117562E+00
 -3.14136690E+00 -4.67100708E-05 -2.59207166E-04  3.14150391E+00  3.14126165E+00
 -1.60542352E-04 -2.82000711E-04  3.14159108E+00  3.14114037E+00 -1.71858360E-04
  6.04786151E-04 -3.14070937E+00 -3.14127224E+00  5.98911464E-04 -3.88841129E-04
  3.14147021E+00  3.14093151E+00 -3.94742260E-04  3.14117476E+00 -3.90954392E-05
 -1.39395278E-04 -3.14135325E+00 -3.14070967E+00  5.99242567E-04  6.10524700E-04
 -3.14126587E+00 -2.86729659E-04  3.14113865E+00  3.14158573E+00 -1.74193506E-04
  4.68596858E-04 -3.14104078E+00 -3.14149760E+00  1.78337254E-04 -2.55326876E-04
  3.14150477E+00  3.14125396E+00 -1.71248435E-04
SymInf integers                            I   N=          26
           1           1           1           1           1           0
           0           0           0           0           0           0
           0           0           0           0           0           0
           0           0           0           0           0           0
           0           0
RotTr to input orientation                 R   N=          12
 -9.99999089E-01  8.19750292E-04  1.07283345E-03  8.20438596E-04  9.99999458E-01
  6.41293644E-04 -1.07230717E-03  6.42173254E-04 -9.99999219E-01 -1.44873972E-04
  3.80779574E-03 -4.86967968E-03
Number of contracted shells                I               64
Number of primitive shells                 I              150
Pure/Cartesian d shells                    I                1
Pure/Cartesian f shells                    I                0
Highest angular momentum                   I                2
Largest degree of contraction              I                6
Shell types                                I   N=          64
           0          -1          -1           2           0          -1
          -1           2           0          -1          -1           2
           0          -1          -1           2           0          -1
          -1           2           0          -1          -1           2
           0          -1          -1           2           0          -1
          -1           2           0          -1          -1           2
           0          -1          -1           2           0           0
           1           0           0           1           0           0
           1           0           0           1           0           0
           1           0           0           1           0           0
           1           0           0           1
Number of primitives per shell             I   N=          64
           6           3           1           1           6           3
           1           1           6           3           1           1
           6           3           1           1           6           3
           1           1           6           3           1           1
           6           3           1           1           6           3
           1           1           6           3           1           1
           6           3           1           1           3           1
           1           3           1           1           3           1
           1           3           1           1           3           1
           1           3           1           1           3           1
           1           3           1           1
Shell to atom map                          I   N=          64
           1           1           1           1           2           2
           2           2           3           3           3           3
           4           4           4           4           5           5
           5           5           6           6           6           6
           7           7           7           7           8           8
           8           8           9           9           9           9
          10          10          10          10          11          11
          11          12          12          12          13          13
          13          14          14          14          15          15
          15          16          16          16          17          17
          17          18          18          18
Primitive exponents                        R   N=         150
  3.04752488E+03  4.57369518E+02  1.03948685E+02  2.92101553E+01  9.28666296E+00
  3.16392696E+00  7.86827235E+00  1.88128854E+00  5.44249258E-01  1.68714478E-01
  8.00000000E-01  3.04752488E+03  4.57369518E+02  1.03948685E+02  2.92101553E+01
  9.28666296E+00  3.16392696E+00  7.86827235E+00  1.88128854E+00  5.44249258E-01
  1.68714478E-01  8.00000000E-01  3.04752488E+03  4.57369518E+02  1.03948685E+02
  2.92101553E+01  9.28666296E+00  3.16392696E+00  7.86827235E+00  1.88128854E+00
  5.44249258E-01  1.68714478E-01  8.00000000E-01  3.04752488E+03  4.57369518E+02
  1.03948685E+02  2.92101553E+01  9.28666296E+00  3.16392696E+00  7.86827235E+00
  1.88128854E+00  5.44249258E-01  1.68714478E-01  8.00000000E-01  3.04752488E+03
  4.57369518E+02  1.03948685E+02  2.92101553E+01  9.28666296E+00  3.16392696E+00
  7.86827235E+00  1.88128854E+00  5.44249258E-01  1.68714478E-01  8.00000000E-01
  3.04752488E+03  4.57369518E+02  1.03948685E+02  2.92101553E+01  9.28666296E+00
  3.16392696E+00  7.86827235E+00  1.88128854E+00  5.44249258E-01  1.68714478E-01
  8.00000000E-01  3.04752488E+03  4.57369518E+02  1.03948685E+02  2.92101553E+01
  9.28666296E+00  3.16392696E+00  7.86827235E+00  1.88128854E+00  5.44249258E-01
  1.68714478E-01  8.00000000E-01  3.04752488E+03  4.57369518E+02  1.03948685E+02
  2.92101553E+01  9.28666296E+00  3.16392696E+00  7.86827235E+00  1.88128854E+00
  5.44249258E-01  1.68714478E-01  8.00000000E-01  3.04752488E+03  4.57369518E+02
  1.03948685E+02  2.92101553E+01  9.28666296E+00  3.16392696E+00  7.86827235E+00
  1.88128854E+00  5.44249258E-01  1.68714478E-01  8.00000000E-01  3.04752488E+03
  4.57369518E+02  1.03948685E+02  2.92101553E+01  9.28666296E+00  3.16392696E+00
  7.86827235E+00  1.88128854E+00  5.44249258E-01  1.68714478E-01  8.00000000E-01
  1.87311370E+01  2.82539436E+00  6.40121692E-01  1.61277759E-01  1.10000000E+00
  1.87311370E+01  2.82539436E+00  6.40121692E-01  1.61277759E-01  1.10000000E+00
  1.87311370E+01  2.82539436E+00  6.40121692E-01  1.61277759E-01  1.10000000E+00
  1.87311370E+01  2.82539436E+00  6.40121692E-01  1.61277759E-01  1.10000000E+00
  1.87311370E+01  2.82539436E+00  6.40121692E-01  1.61277759E-01  1.10000000E+00
  1.87311370E+01  2.82539436E+00  6.40121692E-01  1.61277759E-01  1.10000000E+00
  1.87311370E+01  2.82539436E+00  6.40121692E-01  1.61277759E-01  1.10000000E+00
  1.87311370E+01  2.82539436E+00  6.40121692E-01  1.61277759E-01  1.10000000E+00
Contraction coefficients                   R   N=         150
  1.83473713E-03  1.40373228E-02  6.88426223E-02  2.32184443E-01  4.67941348E-01
  3.62311985E-01 -1.19332420E-01 -1.60854152E-01  1.14345644E+00  1.00000000E+00
  1.00000000E+00  1.83473713E-03  1.40373228E-02  6.88426223E-02  2.32184443E-01
  4.67941348E-01  3.62311985E-01 -1.19332420E-01 -1.60854152E-01  1.14345644E+00
  1.00000000E+00  1.00000000E+00  1.83473713E-03  1.40373228E-02  6.88426223E-02
  2.32184443E-01  4.67941348E-01  3.62311985E-01 -1.19332420E-01 -1.60854152E-01
  1.14345644E+00  1.00000000E+00  1.00000000E+00  1.83473713E-03  1.40373228E-02
  6.88426223E-02  2.32184443E-01  4.67941348E-01  3.62311985E-01 -1.19332420E-01
 -1.60854152E-01  1.14345644E+00  1.00000000E+00  1.00000000E+00  1.83473713E-03
  1.40373228E-02  6.88426223E-02  2.32184443E-01  4.67941348E-01  3.62311985E-01
 -1.19332420E-01 -1.60854152E-01  1.14345644E+00  1.00000000E+00  1.00000000E+00
  1.83473713E-03  1.40373228E-02  6.88426223E-02  2.32184443E-01  4.67941348E-01
  3.62311985E-01 -1.19332420E-01 -1.60854152E-01  1.14345644E+00  1.00000000E+00
  1.00000000E+00  1.83473713E-03  1.40373228E-02  6.88426223E-02  2.32184443E-01
  4.67941348E-01  3.62311985E-01 -1.19332420E-01 -1.60854152E-01  1.14345644E+00
  1.00000000E+00  1.00000000E+00  1.83473713E-03  1.40373228E-02  6.88426223E-02
  2.32184443E-01  4.67941348E-01  3.62311985E-01 -1.19332420E-01 -1.60854152E-01
  1.14345644E+00  1.00000000E+00  1.00000000E+00  1.83473713E-03  1.40373228E-02
  6.88426223E-02  2.32184443E-01  4.67941348E-01  3.62311985E-01 -1.19332420E-01
 -1.60854152E-01  1.14345644E+00  1.00000000E+00  1.00000000E+00  1.83473713E-03
  1.40373228E-02  6.88426223E-02  2.32184443E-01  4.67941348E-01  3.62311985E-01
 -1.19332420E-01 -1.60854152E-01  1.14345644E+00  1.00000000E+00  1.00000000E+00
  3.34946043E-02  2.34726953E-01  8.13757326E-01  1.00000000E+00  1.00000000E+00
  3.34946043E-02  2.34726953E-01  8.13757326E-01  1.00000000E+00  1.00000000E+00
  3.34946043E-02  2.34726953E-01  8.13757326E-01  1.00000000E+00  1.00000000E+00
  3.34946043E-02  2.34726953E-01  8.13757326E-01  1.00000000E+00  1.00000000E+00
  3.34946043E-02  2.34726953E-01  8.13757326E-01  1.00000000E+00  1.00000000E+00
  3.34946043E-02  2.34726953E-01  8.13757326E-01  1.00000000E+00  1.00000000E+00
  3.34946043E-02  2.34726953E-01  8.13757326E-01  1.00000000E+00  1.00000000E+00
  3.34946043E-02  2.34726953E-01  8.13757326E-01  1.00000000E+00  1.00000000E+00
P(S=P) Contraction coefficients            R   N=         150
  0.00000000E+00  0.00000000E+00  0.00000000E+00  0.00000000E+00  0.00000000E+00
  0.00000000E+00  6.89990666E-02  3.16423961E-01  7.44308291E-01  1.00000000E+00
  0.00000000E+00  0.00000000E+00  0.00000000E+00  0.00000000E+00  0.00000000E+00
  0.00000000E+00  0.00000000E+00  6.89990666E-02  3.16423961E-01  7.44308291E-01
  1.00000000E+00  0.00000000E+00  0.00000000E+00  0.00000000E+00  0.00000000E+00
  0.00000000E+00  0.00000000E+00  0.00000000E+00  6.89990666E-02  3.16423961E-01
  7.44308291E-01  1.00000000E+00  0.00000000E+00  0.00000000E+00  0.00000000E+00
  0.00000000E+00  0.00000000E+00  0.00000000E+00  0.00000000E+00  6.89990666E-02
  3.16423961E-01  7.44308291E-01  1.00000000E+00  0.00000000E+00  0.00000000E+00
  0.00000000E+00  0.00000000E+00  0.00000000E+00  0.00000000E+00  0.00000000E+00
  6.89990666E-02  3.16423961E-01  7.44308291E-01  1.00000000E+00  0.00000000E+00
  0.00000000E+00  0.00000000E+00  0.00000000E+00  0.00000000E+00  0.00000000E+00
  0.00000000E+00  6.89990666E-02  3.16423961E-01  7.44308291E-01  1.00000000E+00
  0.00000000E+00  0.00000000E+00  0.00000000E+00  0.00000000E+00  0.00000000E+00
  0.00000000E+00  0.00000000E+00  6.89990666E-02  3.16423961E-01  7.44308291E-01
  1.00000000E+00  0.00000000E+00  0.00000000E+00  0.00000000E+00  0.00000000E+00
  0.00000000E+00  0.00000000E+00  0.00000000E+00  6.89990666E-02  3.16423961E-01
  7.44308291E-01  1.00000000E+00  0.00000000E+00  0.00000000E+00  0.00000000E+00
  0.00000000E+00  0.00000000E+00  0.00000000E+00  0.00000000E+00  6.89990666E-02
  3.16423961E-01  7.44308291E-01  1.00000000E+00  0.00000000E+00  0.00000000E+00
  0.00000000E+00  0.00000000E+00  0.00000000E+00  0.00000000E+00  0.00000000E+00
  6.89990666E-02  3.16423961E-01  7.44308291E-01  1.00000000E+00  0.00000000E+00
  0.00000000E+00  0.00000000E+00  0.00000000E+00  0.00000000E+00  0.00000000E+00
  0.00000000E+00  0.00000000E+00  0.00000000E+00  0.00000000E+00  0.00000000E+00
  0.00000000E+00  0.00000000E+00  0.00000000E+00  0.00000000E+00  0.00000000E+00