#!/usr/bin/env python3

# A formchk mock for tests.

import sys
import argparse
import pathlib


def main():
    parser = argparse.ArgumentParser()


    parser.add_argument("chk", help = "Path to a chk (checkpoint) file to read from", type = pathlib.Path)
    parser.add_argument("fchk", help = "Path to a fchk (formatted checkpoint) file to write to", type = pathlib.Path, default = None, nargs = "?")
    parser.add_argument("-3", help = "Write a 'version 3' file", action = "store_true")
    parser.add_argument("-2", help = "Write a 'version 2' file", action = "store_true")
    # General formatting options that we don't touch for now.
    parser.add_argument("-c", help = "Formatting option, see https://gaussian.com/formchk/", action = "store_true")
    parser.add_argument("-r", help = "Formatting option, see https://gaussian.com/formchk/", action = "store_true")
    parser.add_argument("-matrix", help = "Formatting option, see https://gaussian.com/formchk/", action = "store_true")
    parser.add_argument("-rawmatrix", help = "Formatting option, see https://gaussian.com/formchk/", action = "store_true")
    parser.add_argument("-i4", help = "Formatting option, see https://gaussian.com/formchk/", action = "store_true")
    parser.add_argument("-i8 ", help = "Formatting option, see https://gaussian.com/formchk/", action = "store_true")

    args = parser.parse_args()

    with open(args.fchk if args.fchk is not None else args.chk.with_suffix(".fchk"), "wt") as fchk_file:
        fchk_file.write(FCHK_DATA)

FCHK_DATA = """
Benzene_Optimisation_Frequencies_PBE0__GD3BJ__Gas_Phase_Pople_Basis_Sets
Freq      RPBE1PBE                                                    6-31G(d,p)          
Number of atoms                            I               12
Info1-9                                    I   N=           9
          22          22        1002           0           0         100
           6          18       -1302
Full Title                                 C   N=           7
Benzene_Optimisation_Frequencies_PBE0__GD3BJ__Gas_Phase_Popl
e_Basis_Sets_6_31G__    
Route                                      C   N=          12
#p Opt Freq PBE1PBE/6-31G** SCF=(DIIS) Symmetry=(Tight) Empi
ricalDispersion=(GD3BJ) Integral=(Ultrafine) Population=(Reg
ular) Density=(Current) 
Charge                                     I                0
Multiplicity                               I                1
Number of electrons                        I               42
Number of alpha electrons                  I               21
Number of beta electrons                   I               21
Number of basis functions                  I              120
Number of independent functions            I              120
Number of point charges in /Mol/           I                0
Number of translation vectors              I                0
Atomic numbers                             I   N=          12
           6           6           6           6           6           6
           1           1           1           1           1           1
Nuclear charges                            R   N=          12
  6.00000000E+00  6.00000000E+00  6.00000000E+00  6.00000000E+00  6.00000000E+00
  6.00000000E+00  1.00000000E+00  1.00000000E+00  1.00000000E+00  1.00000000E+00
  1.00000000E+00  1.00000000E+00
Current cartesian coordinates              R   N=          36
 -2.62517674E+00  1.72079439E-01  1.66165580E-05 -1.46153389E+00 -2.18744489E+00
  2.18655106E-04  1.16354700E+00 -2.35941436E+00 -2.22974510E-04  2.62521030E+00
 -1.72009057E-01 -2.09562726E-06  1.46156516E+00  2.18738601E+00  2.41178630E-04
 -1.16361202E+00  2.35941732E+00 -2.36663969E-04 -4.67330935E+00  3.06177555E-01
 -5.44964957E-05 -2.60192380E+00 -3.89400478E+00 -2.24296505E-04  2.07147708E+00
 -4.20022386E+00  2.47103944E-04  4.67332846E+00 -3.06293986E-01 -4.96531064E-05
  2.60188332E+00  3.89399268E+00 -2.42010512E-04 -2.07145465E+00  4.20026563E+00
  2.35055551E-04
Number of symbols in /Mol/                 I                0
Int Atom Types                             I   N=          12
           0           0           0           0           0           0
           0           0           0           0           0           0
Force Field                                I                0
Atom Types                                 C   N=          12
                                                            
                                                            
                        
MM charges                                 R   N=          12
  0.00000000E+00  0.00000000E+00  0.00000000E+00  0.00000000E+00  0.00000000E+00
  0.00000000E+00  0.00000000E+00  0.00000000E+00  0.00000000E+00  0.00000000E+00
  0.00000000E+00  0.00000000E+00
Integer atomic weights                     I   N=          12
          12          12          12          12          12          12
           1           1           1           1           1           1
Real atomic weights                        R   N=          12
  1.20000000E+01  1.20000000E+01  1.20000000E+01  1.20000000E+01  1.20000000E+01
  1.20000000E+01  1.00782504E+00  1.00782504E+00  1.00782504E+00  1.00782504E+00
  1.00782504E+00  1.00782504E+00
Atom fragment info                         I   N=          12
           0           0           0           0           0           0
           0           0           0           0           0           0
Atom residue num                           I   N=          12
           0           0           0           0           0           0
           0           0           0           0           0           0
Nuclear spins                              I   N=          12
           0           0           0           0           0           0
           1           1           1           1           1           1
Nuclear ZEff                               R   N=          12
 -3.60000000E+00 -3.60000000E+00 -3.60000000E+00 -3.60000000E+00 -3.60000000E+00
 -3.60000000E+00 -1.00000000E+00 -1.00000000E+00 -1.00000000E+00 -1.00000000E+00
 -1.00000000E+00 -1.00000000E+00
Nuclear ZNuc                               R   N=          12
  6.00000000E+00  6.00000000E+00  6.00000000E+00  6.00000000E+00  6.00000000E+00
  6.00000000E+00  1.00000000E+00  1.00000000E+00  1.00000000E+00  1.00000000E+00
  1.00000000E+00  1.00000000E+00
Nuclear QMom                               R   N=          12
  0.00000000E+00  0.00000000E+00  0.00000000E+00  0.00000000E+00  0.00000000E+00
  0.00000000E+00  0.00000000E+00  0.00000000E+00  0.00000000E+00  0.00000000E+00
  0.00000000E+00  0.00000000E+00
Nuclear GFac                               R   N=          12
  0.00000000E+00  0.00000000E+00  0.00000000E+00  0.00000000E+00  0.00000000E+00
  0.00000000E+00  2.79284600E+00  2.79284600E+00  2.79284600E+00  2.79284600E+00
  2.79284600E+00  2.79284600E+00
MicOpt                                     I   N=          12
          -1          -1          -1          -1          -1          -1
          -1          -1          -1          -1          -1          -1
Number of residues                         I                0
Number of secondary structures             I                0
Redundant internal dimensions              I   N=           4
          54          12          18          24
Redundant internal coordinate indices      I   N=         216
           1           2           0           0           1           6
           0           0           1           7           0           0
           2           3           0           0           2           8
           0           0           3           4           0           0
           3           9           0           0           4           5
           0           0           4          10           0           0
           5           6           0           0           5          11
           0           0           6          12           0           0
           2           1           6           0           2           1
           7           0           6           1           7           0
           1           2           3           0           1           2
           8           0           3           2           8           0
           2           3           4           0           2           3
           9           0           4           3           9           0
           3           4           5           0           3           4
          10           0           5           4          10           0
           4           5           6           0           4           5
          11           0           6           5          11           0
           1           6           5           0           1           6
          12           0           5           6          12           0
           6           1           2           3           6           1
           2           8           7           1           2           3
           7           1           2           8           2           1
           6           5           2           1           6          12
           7           1           6           5           7           1
           6          12           1           2           3           4
           1           2           3           9           8           2
           3           4           8           2           3           9
           2           3           4           5           2           3
           4          10           9           3           4           5
           9           3           4          10           3           4
           5           6           3           4           5          11
          10           4           5           6          10           4
           5          11           4           5           6           1
           4           5           6          12          11           5
           6           1          11           5           6          12
Redundant internal coordinates             R   N=          54
  2.63085914E+00  2.63070684E+00  2.05251784E+00  2.63070777E+00  2.05251943E+00
  2.63081767E+00  2.05253912E+00  2.63074422E+00  2.05251564E+00  2.63080791E+00
  2.05251847E+00  2.05253525E+00  2.09436643E+00  2.09434378E+00  2.09447510E+00
  2.09438040E+00  2.09433484E+00  2.09446994E+00  2.09445536E+00  2.09442449E+00
  2.09430533E+00  2.09432699E+00  2.09440074E+00  2.09445757E+00  2.09442397E+00
  2.09435405E+00  2.09440714E+00  2.09441737E+00  2.09436882E+00  2.09439897E+00
 -1.71344051E-04 -3.14123230E+00  3.14135880E+00  2.97844925E-04 -2.32232397E-04
 -3.14123861E+00  3.14142293E+00  4.16560761E-04  3.79480614E-04  3.14141686E+00
  3.14144040E+00 -7.07531083E-04 -1.84022616E-04  3.14142555E+00 -3.14122144E+00
  3.88131284E-04 -2.19567270E-04 -3.14122388E+00  3.14135617E+00  3.51850997E-04
  4.27699894E-04  3.14143406E+00  3.14143200E+00 -7.46946433E-04
ZRed-IntVec                                I   N=          54
           0           0           0           0           0           0
           0           0           0           0           0           0
           0           0           0           0           0           0
           0           0           0           0           0           0
           0           0           0           0           0           0
           0           0           0           0           0           0
           0           0           0           0           0           0
           0           0           0           0           0           0
           0           0           0           0           0           0
ZRed-FPVec                                 R   N=          54
  0.00000000E+00  0.00000000E+00  0.00000000E+00  0.00000000E+00  0.00000000E+00
  0.00000000E+00  0.00000000E+00  0.00000000E+00  0.00000000E+00  0.00000000E+00
  0.00000000E+00  0.00000000E+00  0.00000000E+00  0.00000000E+00  0.00000000E+00
  0.00000000E+00  0.00000000E+00  0.00000000E+00  0.00000000E+00  0.00000000E+00
  0.00000000E+00  0.00000000E+00  0.00000000E+00  0.00000000E+00  0.00000000E+00
  0.00000000E+00  0.00000000E+00  0.00000000E+00  0.00000000E+00  0.00000000E+00
  0.00000000E+00  0.00000000E+00  0.00000000E+00  0.00000000E+00  0.00000000E+00
  0.00000000E+00  0.00000000E+00  0.00000000E+00  0.00000000E+00  0.00000000E+00
  0.00000000E+00  0.00000000E+00  0.00000000E+00  0.00000000E+00  0.00000000E+00
  0.00000000E+00  0.00000000E+00  0.00000000E+00  0.00000000E+00  0.00000000E+00
  0.00000000E+00  0.00000000E+00  0.00000000E+00  0.00000000E+00
ZRed-Constraint1                           R   N=          54
  2.63085914E+00  2.63070684E+00  2.05251784E+00  2.63070777E+00  2.05251943E+00
  2.63081767E+00  2.05253912E+00  2.63074422E+00  2.05251564E+00  2.63080791E+00
  2.05251847E+00  2.05253525E+00  2.09436643E+00  2.09434378E+00  2.09447510E+00
  2.09438040E+00  2.09433484E+00  2.09446994E+00  2.09445536E+00  2.09442449E+00
  2.09430533E+00  2.09432699E+00  2.09440074E+00  2.09445757E+00  2.09442397E+00
  2.09435405E+00  2.09440714E+00  2.09441737E+00  2.09436882E+00  2.09439897E+00
 -1.71344050E-04 -3.14123230E+00  3.14135880E+00  2.97844925E-04 -2.32232397E-04
 -3.14123861E+00  3.14142293E+00  4.16560760E-04  3.79480614E-04  3.14141686E+00
  3.14144040E+00 -7.07531083E-04 -1.84022616E-04  3.14142555E+00 -3.14122144E+00
  3.88131285E-04 -2.19567270E-04 -3.14122388E+00  3.14135617E+00  3.51850997E-04
  4.27699894E-04  3.14143406E+00  3.14143200E+00 -7.46946433E-04
ZRed-Constraint2                           R   N=          54
  2.63614570E+00  2.63557363E+00  2.05356026E+00  2.63551690E+00  2.05338590E+00
  2.63604115E+00  2.05355420E+00  2.63590490E+00  2.05317622E+00  2.63563784E+00
  2.05379640E+00  2.05351912E+00  2.09436902E+00  2.09424626E+00  2.09457003E+00
  2.09426050E+00  2.09433469E+00  2.09459005E+00  2.09458708E+00  2.09437102E+00
  2.09422714E+00  2.09420058E+00  2.09448477E+00  2.09449996E+00  2.09440552E+00
  2.09432858E+00  2.09445113E+00  2.09454416E+00  2.09422818E+00  2.09441295E+00
  1.07223989E-03 -3.14090080E+00 -3.14054305E+00  6.69224395E-04  1.32920617E-03
 -3.14046435E+00 -3.14024081E+00  1.15093750E-03 -2.36299222E-03  3.13962918E+00
  3.13961010E+00 -1.58303945E-03  1.25241532E-03 -3.14037217E+00 -3.14073972E+00
  8.20998060E-04  1.14915891E-03 -3.14087874E+00 -3.14041156E+00  7.45850083E-04
 -2.43994757E-03  3.13935363E+00  3.13958798E+00 -1.80374408E-03
SymInf integers                            I   N=          26
           1           1           1           1           1           0
           0           0           0           0           0           0
           0           0           0           0           0           0
           0           0           0           0           0           0
           0           0
RotTr to input orientation                 R   N=          12
 -9.75633321E-01  2.19387736E-01 -2.94016097E-03  2.19349021E-01  9.75595191E-01
  1.00015265E-02  5.06261916E-03  9.11290105E-03 -9.99945661E-01  9.03274169E-03
 -1.03812767E-02  9.40366906E-04
Number of contracted shells                I               42
Number of primitive shells                 I               96
Pure/Cartesian d shells                    I                1
Pure/Cartesian f shells                    I                0
Highest angular momentum                   I                2
Largest degree of contraction              I                6
Shell types                                I   N=          42
           0          -1          -1           2           0          -1
          -1           2           0          -1          -1           2
           0          -1          -1           2           0          -1
          -1           2           0          -1          -1           2
           0           0           1           0           0           1
           0           0           1           0           0           1
           0           0           1           0           0           1
Number of primitives per shell             I   N=          42
           6           3           1           1           6           3
           1           1           6           3           1           1
           6           3           1           1           6           3
           1           1           6           3           1           1
           3           1           1           3           1           1
           3           1           1           3           1           1
           3           1           1           3           1           1
Shell to atom map                          I   N=          42
           1           1           1           1           2           2
           2           2           3           3           3           3
           4           4           4           4           5           5
           5           5           6           6           6           6
           7           7           7           8           8           8
           9           9           9          10          10          10
          11          11          11          12          12          12
Primitive exponents                        R   N=          96
  3.04752488E+03  4.57369518E+02  1.03948685E+02  2.92101553E+01  9.28666296E+00
  3.16392696E+00  7.86827235E+00  1.88128854E+00  5.44249258E-01  1.68714478E-01
  8.00000000E-01  3.04752488E+03  4.57369518E+02  1.03948685E+02  2.92101553E+01
  9.28666296E+00  3.16392696E+00  7.86827235E+00  1.88128854E+00  5.44249258E-01
  1.68714478E-01  8.00000000E-01  3.04752488E+03  4.57369518E+02  1.03948685E+02
  2.92101553E+01  9.28666296E+00  3.16392696E+00  7.86827235E+00  1.88128854E+00
  5.44249258E-01  1.68714478E-01  8.00000000E-01  3.04752488E+03  4.57369518E+02
  1.03948685E+02  2.92101553E+01  9.28666296E+00  3.16392696E+00  7.86827235E+00
  1.88128854E+00  5.44249258E-01  1.68714478E-01  8.00000000E-01  3.04752488E+03
  4.57369518E+02  1.03948685E+02  2.92101553E+01  9.28666296E+00  3.16392696E+00
  7.86827235E+00  1.88128854E+00  5.44249258E-01  1.68714478E-01  8.00000000E-01
  3.04752488E+03  4.57369518E+02  1.03948685E+02  2.92101553E+01  9.28666296E+00
  3.16392696E+00  7.86827235E+00  1.88128854E+00  5.44249258E-01  1.68714478E-01
  8.00000000E-01  1.87311370E+01  2.82539436E+00  6.40121692E-01  1.61277759E-01
  1.10000000E+00  1.87311370E+01  2.82539436E+00  6.40121692E-01  1.61277759E-01
  1.10000000E+00  1.87311370E+01  2.82539436E+00  6.40121692E-01  1.61277759E-01
  1.10000000E+00  1.87311370E+01  2.82539436E+00  6.40121692E-01  1.61277759E-01
  1.10000000E+00  1.87311370E+01  2.82539436E+00  6.40121692E-01  1.61277759E-01
  1.10000000E+00  1.87311370E+01  2.82539436E+00  6.40121692E-01  1.61277759E-01
  1.10000000E+00
Contraction coefficients                   R   N=          96
  1.83473713E-03  1.40373228E-02  6.88426223E-02  2.32184443E-01  4.67941348E-01
  3.62311985E-01 -1.19332420E-01 -1.60854152E-01  1.14345644E+00  1.00000000E+00
  1.00000000E+00  1.83473713E-03  1.40373228E-02  6.88426223E-02  2.32184443E-01
  4.67941348E-01  3.62311985E-01 -1.19332420E-01 -1.60854152E-01  1.14345644E+00
  1.00000000E+00  1.00000000E+00  1.83473713E-03  1.40373228E-02  6.88426223E-02
  2.32184443E-01  4.67941348E-01  3.62311985E-01 -1.19332420E-01 -1.60854152E-01
  1.14345644E+00  1.00000000E+00  1.00000000E+00  1.83473713E-03  1.40373228E-02
  6.88426223E-02  2.32184443E-01  4.67941348E-01  3.62311985E-01 -1.19332420E-01
 -1.60854152E-01  1.14345644E+00  1.00000000E+00  1.00000000E+00  1.83473713E-03
  1.40373228E-02  6.88426223E-02  2.32184443E-01  4.67941348E-01  3.62311985E-01
 -1.19332420E-01 -1.60854152E-01  1.14345644E+00  1.00000000E+00  1.00000000E+00
  1.83473713E-03  1.40373228E-02  6.88426223E-02  2.32184443E-01  4.67941348E-01
  3.62311985E-01 -1.19332420E-01 -1.60854152E-01  1.14345644E+00  1.00000000E+00
  1.00000000E+00  3.34946043E-02  2.34726953E-01  8.13757326E-01  1.00000000E+00
  1.00000000E+00  3.34946043E-02  2.34726953E-01  8.13757326E-01  1.00000000E+00
  1.00000000E+00  3.34946043E-02  2.34726953E-01  8.13757326E-01  1.00000000E+00
  1.00000000E+00  3.34946043E-02  2.34726953E-01  8.13757326E-01  1.00000000E+00
  1.00000000E+00  3.34946043E-02  2.34726953E-01  8.13757326E-01  1.00000000E+00
  1.00000000E+00  3.34946043E-02  2.34726953E-01  8.13757326E-01  1.00000000E+00
  1.00000000E+00
P(S=P) Contraction coefficients            R   N=          96
  0.00000000E+00  0.00000000E+00  0.00000000E+00  0.00000000E+00  0.00000000E+00
  0.00000000E+00  6.89990666E-02  3.16423961E-01  7.44308291E-01  1.00000000E+00
  0.00000000E+00  0.00000000E+00  0.00000000E+00  0.00000000E+00  0.00000000E+00
  0.00000000E+00  0.00000000E+00  6.89990666E-02  3.16423961E-01  7.44308291E-01
  1.00000000E+00  0.00000000E+00  0.00000000E+00  0.00000000E+00  0.00000000E+00
  0.00000000E+00  0.00000000E+00  0.00000000E+00  6.89990666E-02  3.16423961E-01
  7.44308291E-01  1.00000000E+00  0.00000000E+00  0.00000000E+00  0.00000000E+00
  0.00000000E+00  0.00000000E+00  0.00000000E+00  0.00000000E+00  6.89990666E-02
  3.16423961E-01  7.44308291E-01  1.00000000E+00  0.00000000E+00  0.00000000E+00
  0.00000000E+00  0.00000000E+00  0.00000000E+00  0.00000000E+00  0.00000000E+00
  6.89990666E-02  3.16423961E-01  7.44308291E-01  1.00000000E+00  0.00000000E+00
  0.00000000E+00  0.00000000E+00  0.00000000E+00  0.00000000E+00  0.00000000E+00
  0.00000000E+00  6.89990666E-02  3.16423961E-01  7.44308291E-01  1.00000000E+00
  0.00000000E+00  0.00000000E+00  0.00000000E+00  0.00000000E+00  0.00000000E+00
  0.00000000E+00  0.00000000E+00  0.00000000E+00  0.00000000E+00  0.00000000E+00
  0.00000000E+00  0.00000000E+00  0.00000000E+00  0.00000000E+00  0.00000000E+00
  0.00000000E+00  0.00000000E+00  0.00000000E+00  0.00000000E+00  0.00000000E+00
  0.00000000E+00  0.00000000E+00  0.00000000E+00  0.00000000E+00  0.00000000E+00
  0.00000000E+00  0.00000000E+00  0.00000000E+00  0.00000000E+00  0.00000000E+00
  0.00000000E+00
Coordinates of each shell                  R   N=         126
 -2.62517674E+00  1.72079439E-01  1.66165580E-05 -2.62517674E+00  1.72079439E-01
  1.66165580E-05 -2.62517674E+00  1.72079439E-01  1.66165580E-05 -2.62517674E+00
  1.72079439E-01  1.66165580E-05 -1.46153389E+00 -2.18744489E+00  2.18655106E-04
 -1.46153389E+00 -2.18744489E+00  2.18655106E-04 -1.46153389E+00 -2.18744489E+00
  2.18655106E-04 -1.46153389E+00 -2.18744489E+00  2.18655106E-04  1.16354700E+00
 -2.35941436E+00 -2.22974510E-04  1.16354700E+00 -2.35941436E+00 -2.22974510E-04
  1.16354700E+00 -2.35941436E+00 -2.22974510E-04  1.16354700E+00 -2.35941436E+00
 -2.22974510E-04  2.62521030E+00 -1.72009057E-01 -2.09562726E-06  2.62521030E+00
 -1.72009057E-01 -2.09562726E-06  2.62521030E+00 -1.72009057E-01 -2.09562726E-06
  2.62521030E+00 -1.72009057E-01 -2.09562726E-06  1.46156516E+00  2.18738601E+00
  2.41178630E-04  1.46156516E+00  2.18738601E+00  2.41178630E-04  1.46156516E+00
  2.18738601E+00  2.41178630E-04  1.46156516E+00  2.18738601E+00  2.41178630E-04
 -1.16361202E+00  2.35941732E+00 -2.36663969E-04 -1.16361202E+00  2.35941732E+00
 -2.36663969E-04 -1.16361202E+00  2.35941732E+00 -2.36663969E-04 -1.16361202E+00
  2.35941732E+00 -2.36663969E-04 -4.67330935E+00  3.06177555E-01 -5.44964957E-05
 -4.67330935E+00  3.06177555E-01 -5.44964957E-05 -4.67330935E+00  3.06177555E-01
 -5.44964957E-05 -2.60192380E+00 -3.89400478E+00 -2.24296505E-04 -2.60192380E+00
 -3.89400478E+00 -2.24296505E-04 -2.60192380E+00 -3.89400478E+00 -2.24296505E-04
  2.07147708E+00 -4.20022386E+00  2.47103944E-04  2.07147708E+00 -4.20022386E+00
  2.47103944E-04  2.07147708E+00 -4.20022386E+00  2.47103944E-04  4.67332846E+00
 -3.06293986E-01 -4.96531064E-05  4.67332846E+00 -3.06293986E-01 -4.96531064E-05
  4.67332846E+00 -3.06293986E-01 -4.96531064E-05  2.60188332E+00  3.89399268E+00
 -2.42010512E-04  2.60188332E+00  3.89399268E+00 -2.42010512E-04  2.60188332E+00
  3.89399268E+00 -2.42010512E-04 -2.07145465E+00  4.20026563E+00  2.35055551E-04
 -2.07145465E+00  4.20026563E+00  2.35055551E-04 -2.07145465E+00  4.20026563E+00
  2.35055551E-04
Num ILSW                                   I              100
ILSW                                       I   N=         100
           0           1           0           0           2           0
           0           0           0           0        1009          -1
           5           0           0           0           2           0
           0           0           0           0           1           0
           1           0           0           0           0           0
           0           0      100000           0          -1           0
           0           0           0           0           0           0
           0           0           0           1           0           0
           0 -2000000000           1           0           0           0
           0           0         141          52           0           0
           0           0          13           0           0           0
           0           0           0          12           0           1
           0           0           0           0           0           0
           0           0           0           0           0           0
           0           0           0           0           0           0
           0           0           0           0           0           0
           0           0           0           0
Num RLSW                                   I               52
RLSW                                       R   N=          52
  7.50000000E-01  7.50000000E-01  1.00000000E+00  1.00000000E+00  2.50000000E-01
  0.00000000E+00  0.00000000E+00  1.00000000E+00  0.00000000E+00  0.00000000E+00
  0.00000000E+00  0.00000000E+00  1.00000000E+00  0.00000000E+00  0.00000000E+00
  0.00000000E+00  0.00000000E+00  1.00000000E+00  0.00000000E+00  0.00000000E+00
  0.00000000E+00  0.00000000E+00  1.00000000E+00  0.00000000E+00  0.00000000E+00
  0.00000000E+00  0.00000000E+00  1.00000000E+00  0.00000000E+00  0.00000000E+00
  0.00000000E+00  0.00000000E+00  1.00000000E+00  0.00000000E+00  0.00000000E+00
  0.00000000E+00  0.00000000E+00  0.00000000E+00  1.00000000E+00  1.00000000E+00
  0.00000000E+00  1.00000000E+00  0.00000000E+00  0.00000000E+00  0.00000000E+00
  0.00000000E+00  0.00000000E+00  0.00000000E+00  0.00000000E+00  0.00000000E+00
  0.00000000E+00  0.00000000E+00
MxBond                                     I                3
NBond                                      I   N=          12
           3           3           3           3           3           3
           1           1           1           1           1           1
IBond                                      I   N=          36
           2           6           7           1           3           8
           2           4           9           3           5          10
           4           6          11           1           5          12
           1           0           0           2           0           0
           3           0           0           4           0           0
           5           0           0           6           0           0
RBond                                      R   N=          36
  1.50000000E+00  1.50000000E+00  1.00000000E+00  1.50000000E+00  1.50000000E+00
  1.00000000E+00  1.50000000E+00  1.50000000E+00  1.00000000E+00  1.50000000E+00
  1.50000000E+00  1.00000000E+00  1.50000000E+00  1.50000000E+00  1.00000000E+00
  1.50000000E+00  1.50000000E+00  1.00000000E+00  1.00000000E+00  0.00000000E+00
  0.00000000E+00  1.00000000E+00  0.00000000E+00  0.00000000E+00  1.00000000E+00
  0.00000000E+00  0.00000000E+00  1.00000000E+00  0.00000000E+00  0.00000000E+00
  1.00000000E+00  0.00000000E+00  0.00000000E+00  1.00000000E+00  0.00000000E+00
  0.00000000E+00
Virial Ratio                               R      2.009060395367335E+00
SCF Energy                                 R     -2.319826548350970E+02
Total Energy                               R     -2.319826548350970E+02
RMS Force                                  R      1.169169689453411E-04
RMS Density                                R      5.408712173815544E-10
NImag                                      I                0
Job Status                                 I                1
Nuclear derivative order                   I                2
Thermal Energy                             R     -2.318768932207483E+02
Thermal Enthalpy                           R     -2.318759490359346E+02
Thermal Free Energy                        R     -2.319087321102527E+02
External E-field                           R   N=          35
  0.00000000E+00  0.00000000E+00  0.00000000E+00  0.00000000E+00  0.00000000E+00
  0.00000000E+00  0.00000000E+00  0.00000000E+00  0.00000000E+00  0.00000000E+00
  0.00000000E+00  0.00000000E+00  0.00000000E+00  0.00000000E+00  0.00000000E+00
  0.00000000E+00  0.00000000E+00  0.00000000E+00  0.00000000E+00  0.00000000E+00
  0.00000000E+00  0.00000000E+00  0.00000000E+00  0.00000000E+00  0.00000000E+00
  0.00000000E+00  0.00000000E+00  0.00000000E+00  0.00000000E+00  0.00000000E+00
  0.00000000E+00  0.00000000E+00  0.00000000E+00  0.00000000E+00  0.00000000E+00
IOpCl                                      I                0
IROHF                                      I                0
Alpha Orbital Energies                     R   N=         120
 -1.02363215E+01 -1.02360306E+01 -1.02360296E+01 -1.02354209E+01 -1.02354197E+01
 -1.02351277E+01 -8.74808177E-01 -7.63748197E-01 -7.63744230E-01 -6.15977181E-01
 -6.15973018E-01 -5.34502627E-01 -4.70315852E-01 -4.53764712E-01 -4.28465019E-01
 -4.28457125E-01 -3.75835658E-01 -3.48692724E-01 -3.48669946E-01 -2.58097276E-01
 -2.58094129E-01  8.31443317E-03  8.32271870E-03  1.01475644E-01  1.58348103E-01
  1.58350778E-01  1.73821522E-01  1.95667012E-01  1.95675859E-01  2.05805637E-01