 Entering Gaussian System, Link 0=g16
 Input=/gpfs1/home/osl/test/Naphthalene/Gaussian 16 Excited States TDA Optimised S(1) PBE1PBE (GD3BJ) Toluene 6-31G(d,p)/Input/Naphthalene.com
 Output=/gpfs1/home/osl/test/Naphthalene/Gaussian 16 Excited States TDA Optimised S(1) PBE1PBE (GD3BJ) Toluene 6-31G(d,p)/Output/Naphthalene.log
 Initial command:
 /gpfs1/apps/software/Gaussian16/AVX/g16/l1.exe "/scratch/tmp/osl/e0b83cd6045e4fe1bd0bf8608f5b2dbb/Gau-65371.inp" -scrdir="/scratch/tmp/osl/e0b83cd6045e4fe1bd0bf8608f5b2dbb/"
 Entering Link 1 = /gpfs1/apps/software/Gaussian16/AVX/g16/l1.exe PID=     65372.
  
 Copyright (c) 1988-2019, Gaussian, Inc.  All Rights Reserved.
  
 This is part of the Gaussian(R) 16 program.  It is based on
 the Gaussian(R) 09 system (copyright 2009, Gaussian, Inc.),
 the Gaussian(R) 03 system (copyright 2003, Gaussian, Inc.),
 the Gaussian(R) 98 system (copyright 1998, Gaussian, Inc.),
 the Gaussian(R) 94 system (copyright 1995, Gaussian, Inc.),
 the Gaussian 92(TM) system (copyright 1992, Gaussian, Inc.),
 the Gaussian 90(TM) system (copyright 1990, Gaussian, Inc.),
 the Gaussian 88(TM) system (copyright 1988, Gaussian, Inc.),
 the Gaussian 86(TM) system (copyright 1986, Carnegie Mellon
 University), and the Gaussian 82(TM) system (copyright 1983,
 Carnegie Mellon University). Gaussian is a federally registered
 trademark of Gaussian, Inc.
  
 This software contains proprietary and confidential information,
 including trade secrets, belonging to Gaussian, Inc.
  
 This software is provided under written license and may be
 used, copied, transmitted, or stored only in accord with that
 written license.
  
 The following legend is applicable only to US Government
 contracts under FAR:
  
                    RESTRICTED RIGHTS LEGEND
  
 Use, reproduction and disclosure by the US Government is
 subject to restrictions as set forth in subparagraphs (a)
 and (c) of the Commercial Computer Software - Restricted
 Rights clause in FAR 52.227-19.
  
 Gaussian, Inc.
 340 Quinnipiac St., Bldg. 40, Wallingford CT 06492
  
  
 ---------------------------------------------------------------
 Warning -- This program may not be used in any manner that
 competes with the business of Gaussian, Inc. or will provide
 assistance to any competitor of Gaussian, Inc.  The licensee
 of this program is prohibited from giving any competitor of
 Gaussian, Inc. access to this program.  By using this program,
 the user acknowledges that Gaussian, Inc. is engaged in the
 business of creating and licensing software in the field of
 computational chemistry and represents and warrants to the
 licensee that it is not a competitor of Gaussian, Inc. and that
 it will not use this program in any manner prohibited above.
 ---------------------------------------------------------------
  

 Cite this work as:
 Gaussian 16, Revision C.01,
 M. J. Frisch, G. W. Trucks, H. B. Schlegel, G. E. Scuseria, 
 M. A. Robb, J. R. Cheeseman, G. Scalmani, V. Barone, 
 G. A. Petersson, H. Nakatsuji, X. Li, M. Caricato, A. V. Marenich, 
 J. Bloino, B. G. Janesko, R. Gomperts, B. Mennucci, H. P. Hratchian, 
 J. V. Ortiz, A. F. Izmaylov, J. L. Sonnenberg, D. Williams-Young, 
 F. Ding, F. Lipparini, F. Egidi, J. Goings, B. Peng, A. Petrone, 
 T. Henderson, D. Ranasinghe, V. G. Zakrzewski, J. Gao, N. Rega, 
 G. Zheng, W. Liang, M. Hada, M. Ehara, K. Toyota, R. Fukuda, 
 J. Hasegawa, M. Ishida, T. Nakajima, Y. Honda, O. Kitao, H. Nakai, 
 T. Vreven, K. Throssell, J. A. Montgomery, Jr., J. E. Peralta, 
 F. Ogliaro, M. J. Bearpark, J. J. Heyd, E. N. Brothers, K. N. Kudin, 
 V. N. Staroverov, T. A. Keith, R. Kobayashi, J. Normand, 
 K. Raghavachari, A. P. Rendell, J. C. Burant, S. S. Iyengar, 
 J. Tomasi, M. Cossi, J. M. Millam, M. Klene, C. Adamo, R. Cammi, 
 J. W. Ochterski, R. L. Martin, K. Morokuma, O. Farkas, 
 J. B. Foresman, and D. J. Fox, Gaussian, Inc., Wallingford CT, 2019.
 
 ******************************************
 Gaussian 16:  ES64L-G16RevC.01  3-Jul-2019
                 7-Jun-2022 
 ******************************************
 %Chk="Naphthalene.chk"
 %Rwf="Naphthalene.rwf"
 %NProcShared=4
 Will use up to    4 processors via shared memory.
 %Mem=10GB
 ----------------------------------------------------------------------
 #p Opt TDA=(Singlet, nstates=10, root=1) PBE1PBE/6-31G(d,p) SCRF=(Solv
 ent=Toluene) EmpiricalDispersion=(GD3BJ) Symmetry=(Tight) Population=(
 Regular) Density=(Current) 6D 10F GFInput
 ----------------------------------------------------------------------
 1/18=20,19=15,26=3,38=1/1,3;
 2/9=110,12=2,40=1/2;
 3/5=1,6=6,7=101,8=22,11=9,24=10,25=1,30=1,70=2201,71=1,72=13,74=-13,124=41/1,2,3,8;
 4//1;
 5/5=2,38=5,53=13/2;
 8/6=1,10=2,107=1,108=10/1;
 9/8=1,15=2,41=10,42=1,48=1/14;
 10/5=4,28=1/2;
 6/22=-1/1;
 7/12=6,13=5,14=1/1,2,3,16;
 1/18=20,19=15,26=3/3(2);
 2/9=110/2;
 99//99;
 2/9=110/2;
 3/5=1,6=6,7=101,8=22,11=9,25=1,30=1,70=2205,71=1,72=13,74=-13,124=41/1,2,3,8;
 4/5=5,16=3,69=1/1;
 5/5=2,38=5,53=13/2;
 8/6=1,10=2,107=1,108=10/1;
 9/8=1,15=2,41=10,42=1,48=1,49=4/14;
 10/5=4,28=1/2;
 7/12=6,13=5,14=1/1,2,3,16;
 1/18=20,19=15,26=3/3(-8);
 2/9=110/2;
 6/22=-1/1;
 99/9=10/99;
 Leave Link    1 at Tue Jun  7 17:30:14 2022, MaxMem=  1342177280 cpu:               0.7 elap:               0.2
 (Enter /gpfs1/apps/software/Gaussian16/AVX/g16/l101.exe)
 ----------------------------------------------------------------------
 Naphthalene_Excited_States_TDA_Optimised_S_1__PBE1PBE__GD3BJ__Toluene_
 6_31G_d_p_
 ----------------------------------------------------------------------
 Symbolic Z-matrix:
 Charge =  0 Multiplicity = 1
 C                     0.        1.24046   1.39914 
 C                     0.        2.426     0.70664 
 C                     0.        2.426    -0.70664 
 C                     0.        1.24046  -1.39914 
 C                     0.        0.       -0.71423 
 C                     0.        0.        0.71423 
 C                     0.       -1.24046   1.39914 
 C                     0.       -1.24046  -1.39914 
 C                     0.       -2.426    -0.70664 
 C                     0.       -2.426     0.70664 
 H                     0.        1.2367    2.4862 
 H                     0.        3.3697    1.24397 
 H                     0.        3.3697   -1.24397 
 H                     0.        1.2367   -2.4862 
 H                     0.       -1.2367    2.4862 
 H                     0.       -1.2367   -2.4862 
 H                     0.       -3.3697   -1.24397 
 H                     0.       -3.3697    1.24397 
 
 ITRead=  0  0  0  0  0  0  0  0  0  0  0  0  0  0  0  0  0  0
 MicOpt= -1 -1 -1 -1 -1 -1 -1 -1 -1 -1 -1 -1 -1 -1 -1 -1 -1 -1
 NAtoms=     18 NQM=       18 NQMF=       0 NMMI=      0 NMMIF=      0
                NMic=       0 NMicF=      0.
                    Isotopes and Nuclear Properties:
 (Nuclear quadrupole moments (NQMom) in fm**2, nuclear magnetic moments (NMagM)
  in nuclear magnetons)

  Atom         1           2           3           4           5           6           7           8           9          10
 IAtWgt=          12          12          12          12          12          12          12          12          12          12
 AtmWgt=  12.0000000  12.0000000  12.0000000  12.0000000  12.0000000  12.0000000  12.0000000  12.0000000  12.0000000  12.0000000
 NucSpn=           0           0           0           0           0           0           0           0           0           0
 AtZEff=  -0.0000000  -0.0000000  -0.0000000  -0.0000000  -0.0000000  -0.0000000  -0.0000000  -0.0000000  -0.0000000  -0.0000000
 NQMom=    0.0000000   0.0000000   0.0000000   0.0000000   0.0000000   0.0000000   0.0000000   0.0000000   0.0000000   0.0000000
 NMagM=    0.0000000   0.0000000   0.0000000   0.0000000   0.0000000   0.0000000   0.0000000   0.0000000   0.0000000   0.0000000
 AtZNuc=   6.0000000   6.0000000   6.0000000   6.0000000   6.0000000   6.0000000   6.0000000   6.0000000   6.0000000   6.0000000

  Atom        11          12          13          14          15          16          17          18
 IAtWgt=           1           1           1           1           1           1           1           1
 AtmWgt=   1.0078250   1.0078250   1.0078250   1.0078250   1.0078250   1.0078250   1.0078250   1.0078250
 NucSpn=           1           1           1           1           1           1           1           1
 AtZEff=  -0.0000000  -0.0000000  -0.0000000  -0.0000000  -0.0000000  -0.0000000  -0.0000000  -0.0000000
 NQMom=    0.0000000   0.0000000   0.0000000   0.0000000   0.0000000   0.0000000   0.0000000   0.0000000
 NMagM=    2.7928460   2.7928460   2.7928460   2.7928460   2.7928460   2.7928460   2.7928460   2.7928460
 AtZNuc=   1.0000000   1.0000000   1.0000000   1.0000000   1.0000000   1.0000000   1.0000000   1.0000000
 Leave Link  101 at Tue Jun  7 17:30:14 2022, MaxMem=  1342177280 cpu:               1.9 elap:               0.5
 (Enter /gpfs1/apps/software/Gaussian16/AVX/g16/l103.exe)

 GradGradGradGradGradGradGradGradGradGradGradGradGradGradGradGradGradGrad
 Berny optimization.
 Initialization pass.
                           ----------------------------
                           !    Initial Parameters    !
                           ! (Angstroms and Degrees)  !
 --------------------------                            --------------------------
 ! Name  Definition              Value          Derivative Info.                !
 --------------------------------------------------------------------------------
 ! R1    R(1,2)                  1.373          estimate D2E/DX2                !
 ! R2    R(1,6)                  1.417          estimate D2E/DX2                !
 ! R3    R(1,11)                 1.0871         estimate D2E/DX2                !
 ! R4    R(2,3)                  1.4133         estimate D2E/DX2                !
 ! R5    R(2,12)                 1.086          estimate D2E/DX2                !
 ! R6    R(3,4)                  1.373          estimate D2E/DX2                !
 ! R7    R(3,13)                 1.086          estimate D2E/DX2                !
 ! R8    R(4,5)                  1.417          estimate D2E/DX2                !
 ! R9    R(4,14)                 1.0871         estimate D2E/DX2                !
 ! R10   R(5,6)                  1.4285         estimate D2E/DX2                !
 ! R11   R(5,8)                  1.417          estimate D2E/DX2                !
 ! R12   R(6,7)                  1.417          estimate D2E/DX2                !
 ! R13   R(7,10)                 1.373          estimate D2E/DX2                !
 ! R14   R(7,15)                 1.0871         estimate D2E/DX2                !
 ! R15   R(8,9)                  1.373          estimate D2E/DX2                !
 ! R16   R(8,16)                 1.0871         estimate D2E/DX2                !
 ! R17   R(9,10)                 1.4133         estimate D2E/DX2                !
 ! R18   R(9,17)                 1.086          estimate D2E/DX2                !
 ! R19   R(10,18)                1.086          estimate D2E/DX2                !
 ! A1    A(2,1,6)              120.8049         estimate D2E/DX2                !
 ! A2    A(2,1,11)             120.4883         estimate D2E/DX2                !
 ! A3    A(6,1,11)             118.7068         estimate D2E/DX2                !
 ! A4    A(1,2,3)              120.2901         estimate D2E/DX2                !
 ! A5    A(1,2,12)             120.0533         estimate D2E/DX2                !
 ! A6    A(3,2,12)             119.6566         estimate D2E/DX2                !
 ! A7    A(2,3,4)              120.2901         estimate D2E/DX2                !
 ! A8    A(2,3,13)             119.6566         estimate D2E/DX2                !
 ! A9    A(4,3,13)             120.0533         estimate D2E/DX2                !
 ! A10   A(3,4,5)              120.8049         estimate D2E/DX2                !
 ! A11   A(3,4,14)             120.4883         estimate D2E/DX2                !
 ! A12   A(5,4,14)             118.7068         estimate D2E/DX2                !
 ! A13   A(4,5,6)              118.9049         estimate D2E/DX2                !
 ! A14   A(4,5,8)              122.1901         estimate D2E/DX2                !
 ! A15   A(6,5,8)              118.9049         estimate D2E/DX2                !
 ! A16   A(1,6,5)              118.9049         estimate D2E/DX2                !
 ! A17   A(1,6,7)              122.1901         estimate D2E/DX2                !
 ! A18   A(5,6,7)              118.9049         estimate D2E/DX2                !
 ! A19   A(6,7,10)             120.8049         estimate D2E/DX2                !
 ! A20   A(6,7,15)             118.7068         estimate D2E/DX2                !
 ! A21   A(10,7,15)            120.4883         estimate D2E/DX2                !
 ! A22   A(5,8,9)              120.8049         estimate D2E/DX2                !
 ! A23   A(5,8,16)             118.7068         estimate D2E/DX2                !
 ! A24   A(9,8,16)             120.4883         estimate D2E/DX2                !
 ! A25   A(8,9,10)             120.2901         estimate D2E/DX2                !
 ! A26   A(8,9,17)             120.0533         estimate D2E/DX2                !
 ! A27   A(10,9,17)            119.6566         estimate D2E/DX2                !
 ! A28   A(7,10,9)             120.2901         estimate D2E/DX2                !
 ! A29   A(7,10,18)            120.0533         estimate D2E/DX2                !
 ! A30   A(9,10,18)            119.6566         estimate D2E/DX2                !
 ! D1    D(6,1,2,3)              0.0            estimate D2E/DX2                !
 ! D2    D(6,1,2,12)           180.0            estimate D2E/DX2                !
 ! D3    D(11,1,2,3)           180.0            estimate D2E/DX2                !
 ! D4    D(11,1,2,12)            0.0            estimate D2E/DX2                !
 ! D5    D(2,1,6,5)              0.0            estimate D2E/DX2                !
 ! D6    D(2,1,6,7)            180.0            estimate D2E/DX2                !
 ! D7    D(11,1,6,5)           180.0            estimate D2E/DX2                !
 ! D8    D(11,1,6,7)             0.0            estimate D2E/DX2                !
 ! D9    D(1,2,3,4)              0.0            estimate D2E/DX2                !
 ! D10   D(1,2,3,13)           180.0            estimate D2E/DX2                !
 ! D11   D(12,2,3,4)           180.0            estimate D2E/DX2                !
 ! D12   D(12,2,3,13)            0.0            estimate D2E/DX2                !
 ! D13   D(2,3,4,5)              0.0            estimate D2E/DX2                !
 ! D14   D(2,3,4,14)           180.0            estimate D2E/DX2                !
 ! D15   D(13,3,4,5)           180.0            estimate D2E/DX2                !
 ! D16   D(13,3,4,14)            0.0            estimate D2E/DX2                !
 ! D17   D(3,4,5,6)              0.0            estimate D2E/DX2                !
 ! D18   D(3,4,5,8)            180.0            estimate D2E/DX2                !
 ! D19   D(14,4,5,6)           180.0            estimate D2E/DX2                !
 ! D20   D(14,4,5,8)             0.0            estimate D2E/DX2                !
 ! D21   D(4,5,6,1)              0.0            estimate D2E/DX2                !
 ! D22   D(4,5,6,7)            180.0            estimate D2E/DX2                !
 ! D23   D(8,5,6,1)            180.0            estimate D2E/DX2                !
 ! D24   D(8,5,6,7)              0.0            estimate D2E/DX2                !
 ! D25   D(4,5,8,9)            180.0            estimate D2E/DX2                !
 ! D26   D(4,5,8,16)             0.0            estimate D2E/DX2                !
 ! D27   D(6,5,8,9)              0.0            estimate D2E/DX2                !
 ! D28   D(6,5,8,16)           180.0            estimate D2E/DX2                !
 ! D29   D(1,6,7,10)           180.0            estimate D2E/DX2                !
 ! D30   D(1,6,7,15)             0.0            estimate D2E/DX2                !
 ! D31   D(5,6,7,10)             0.0            estimate D2E/DX2                !
 ! D32   D(5,6,7,15)           180.0            estimate D2E/DX2                !
 ! D33   D(6,7,10,9)             0.0            estimate D2E/DX2                !
 ! D34   D(6,7,10,18)          180.0            estimate D2E/DX2                !
 ! D35   D(15,7,10,9)          180.0            estimate D2E/DX2                !
 ! D36   D(15,7,10,18)           0.0            estimate D2E/DX2                !
 ! D37   D(5,8,9,10)             0.0            estimate D2E/DX2                !
 ! D38   D(5,8,9,17)           180.0            estimate D2E/DX2                !
 ! D39   D(16,8,9,10)          180.0            estimate D2E/DX2                !
 ! D40   D(16,8,9,17)            0.0            estimate D2E/DX2                !
 ! D41   D(8,9,10,7)             0.0            estimate D2E/DX2                !
 ! D42   D(8,9,10,18)          180.0            estimate D2E/DX2                !
 ! D43   D(17,9,10,7)          180.0            estimate D2E/DX2                !
 ! D44   D(17,9,10,18)           0.0            estimate D2E/DX2                !
 --------------------------------------------------------------------------------
 Trust Radius=3.00D-01 FncErr=1.00D-07 GrdErr=1.00D-06 EigMax=2.50D+02 EigMin=1.00D-04
 Number of steps in this run=    103 maximum allowed number of steps=    108.
 GradGradGradGradGradGradGradGradGradGradGradGradGradGradGradGradGradGrad

 Leave Link  103 at Tue Jun  7 17:30:15 2022, MaxMem=  1342177280 cpu:               0.0 elap:               0.0
 (Enter /gpfs1/apps/software/Gaussian16/AVX/g16/l202.exe)
                          Input orientation:                          
 ---------------------------------------------------------------------
 Center     Atomic      Atomic             Coordinates (Angstroms)
 Number     Number       Type             X           Y           Z
 ---------------------------------------------------------------------
      1          6           0        0.000000    1.240460    1.399140
      2          6           0        0.000000    2.426000    0.706640
      3          6           0        0.000000    2.426000   -0.706640
      4          6           0        0.000000    1.240460   -1.399140
      5          6           0        0.000000    0.000000   -0.714230
      6          6           0        0.000000    0.000000    0.714230
      7          6           0        0.000000   -1.240460    1.399140
      8          6           0        0.000000   -1.240460   -1.399140
      9          6           0        0.000000   -2.426000   -0.706640
     10          6           0        0.000000   -2.426000    0.706640
     11          1           0        0.000000    1.236700    2.486200
     12          1           0        0.000000    3.369700    1.243970
     13          1           0        0.000000    3.369700   -1.243970
     14          1           0        0.000000    1.236700   -2.486200
     15          1           0        0.000000   -1.236700    2.486200
     16          1           0        0.000000   -1.236700   -2.486200
     17          1           0        0.000000   -3.369700   -1.243970
     18          1           0        0.000000   -3.369700    1.243970
 ---------------------------------------------------------------------
                    Distance matrix (angstroms):
                    1          2          3          4          5
     1  C    0.000000
     2  C    1.372975   0.000000
     3  C    2.416571   1.413280   0.000000
     4  C    2.798280   2.416571   1.372975   0.000000
     5  C    2.450525   2.811467   2.426012   1.416984   0.000000
     6  C    1.416984   2.426012   2.811467   2.450525   1.428460
     7  C    2.480920   3.731285   4.228148   3.739697   2.450525
     8  C    3.739697   4.228148   3.731285   2.480920   1.416984
     9  C    4.228148   5.053639   4.852000   3.731285   2.426012
    10  C    3.731285   4.852000   5.053639   4.228148   2.811467
    11  H    1.087067   2.140390   3.407149   3.885342   3.431061
    12  H    2.134887   1.085953   2.166898   3.394067   3.897361
    13  H    3.394067   2.166898   1.085953   2.134887   3.411085
    14  H    3.885342   3.407149   2.140390   1.087067   2.160857
    15  H    2.705184   4.072125   4.858971   4.607840   3.431061
    16  H    4.607840   4.858971   4.072125   2.705184   2.160857
    17  H    5.314095   6.115147   5.820555   4.612771   3.411085
    18  H    4.612771   5.820555   6.115147   5.314095   3.897361
                    6          7          8          9         10
     6  C    0.000000
     7  C    1.416984   0.000000
     8  C    2.450525   2.798280   0.000000
     9  C    2.811467   2.416571   1.372975   0.000000
    10  C    2.426012   1.372975   2.416571   1.413280   0.000000
    11  H    2.160857   2.705184   4.607840   4.858971   4.072125
    12  H    3.411085   4.612771   5.314095   6.115147   5.820555
    13  H    3.897361   5.314095   4.612771   5.820555   6.115147
    14  H    3.431061   4.607840   2.705184   4.072125   4.858971
    15  H    2.160857   1.087067   3.885342   3.407149   2.140390
    16  H    3.431061   3.885342   1.087067   2.140390   3.407149
    17  H    3.897361   3.394067   2.134887   1.085953   2.166898
    18  H    3.411085   2.134887   3.394067   2.166898   1.085953
                   11         12         13         14         15
    11  H    0.000000
    12  H    2.468365   0.000000
    13  H    4.296959   2.487940   0.000000
    14  H    4.972400   4.296959   2.468365   0.000000
    15  H    2.473400   4.770960   5.927317   5.553600   0.000000
    16  H    5.553600   5.927317   4.770960   2.473400   4.972400
    17  H    5.927317   7.183965   6.739400   4.770960   4.296959
    18  H    4.770960   6.739400   7.183965   5.927317   2.468365
                   16         17         18
    16  H    0.000000
    17  H    2.468365   0.000000
    18  H    4.296959   2.487940   0.000000
 Stoichiometry    C10H8
 Framework group  D2H[C2"(C.C),SG(C8H8)]
 Deg. of freedom     9
 Full point group                 D2H     NOp   8
 Largest Abelian subgroup         D2H     NOp   8
 Largest concise Abelian subgroup D2      NOp   4
                         Standard orientation:                         
 ---------------------------------------------------------------------
 Center     Atomic      Atomic             Coordinates (Angstroms)
 Number     Number       Type             X           Y           Z
 ---------------------------------------------------------------------
      1          6           0        0.000000    1.240460    1.399140
      2          6           0        0.000000    2.426000    0.706640
      3          6           0        0.000000    2.426000   -0.706640
      4          6           0        0.000000    1.240460   -1.399140
      5          6           0        0.000000    0.000000   -0.714230
      6          6           0       -0.000000    0.000000    0.714230
      7          6           0       -0.000000   -1.240460    1.399140
      8          6           0       -0.000000   -1.240460   -1.399140
      9          6           0       -0.000000   -2.426000   -0.706640
     10          6           0       -0.000000   -2.426000    0.706640
     11          1           0        0.000000    1.236700    2.486200
     12          1           0        0.000000    3.369700    1.243970
     13          1           0        0.000000    3.369700   -1.243970
     14          1           0        0.000000    1.236700   -2.486200
     15          1           0       -0.000000   -1.236700    2.486200
     16          1           0       -0.000000   -1.236700   -2.486200
     17          1           0       -0.000000   -3.369700   -1.243970
     18          1           0       -0.000000   -3.369700    1.243970
 ---------------------------------------------------------------------
 Rotational constants (GHZ):           3.1325350           1.2377551           0.8871977
 Leave Link  202 at Tue Jun  7 17:30:15 2022, MaxMem=  1342177280 cpu:               0.0 elap:               0.0
 (Enter /gpfs1/apps/software/Gaussian16/AVX/g16/l301.exe)
 Standard basis: 6-31G(d,p) (6D, 10F)
 Ernie: Thresh=  0.10000D-02 Tol=  0.10000D-05 Strict=F.
 AO basis set in the form of general basis input (Overlap normalization):
      1 0
 S   6 1.00       0.000000000000
      0.3047524880D+04  0.1834737132D-02
      0.4573695180D+03  0.1403732281D-01
      0.1039486850D+03  0.6884262226D-01
      0.2921015530D+02  0.2321844432D+00
      0.9286662960D+01  0.4679413484D+00
      0.3163926960D+01  0.3623119853D+00
 SP   3 1.00       0.000000000000
      0.7868272350D+01 -0.1193324198D+00  0.6899906659D-01
      0.1881288540D+01 -0.1608541517D+00  0.3164239610D+00
      0.5442492580D+00  0.1143456438D+01  0.7443082909D+00
 SP   1 1.00       0.000000000000
      0.1687144782D+00  0.1000000000D+01  0.1000000000D+01
 D   1 1.00       0.000000000000
      0.8000000000D+00  0.1000000000D+01
 ****
      2 0
 S   6 1.00       0.000000000000
      0.3047524880D+04  0.1834737132D-02
      0.4573695180D+03  0.1403732281D-01
      0.1039486850D+03  0.6884262226D-01
      0.2921015530D+02  0.2321844432D+00
      0.9286662960D+01  0.4679413484D+00
      0.3163926960D+01  0.3623119853D+00
 SP   3 1.00       0.000000000000
      0.7868272350D+01 -0.1193324198D+00  0.6899906659D-01
      0.1881288540D+01 -0.1608541517D+00  0.3164239610D+00
      0.5442492580D+00  0.1143456438D+01  0.7443082909D+00
 SP   1 1.00       0.000000000000
      0.1687144782D+00  0.1000000000D+01  0.1000000000D+01
 D   1 1.00       0.000000000000
      0.8000000000D+00  0.1000000000D+01
 ****
      3 0
 S   6 1.00       0.000000000000
      0.3047524880D+04  0.1834737132D-02
      0.4573695180D+03  0.1403732281D-01
      0.1039486850D+03  0.6884262226D-01
      0.2921015530D+02  0.2321844432D+00
      0.9286662960D+01  0.4679413484D+00
      0.3163926960D+01  0.3623119853D+00
 SP   3 1.00       0.000000000000
      0.7868272350D+01 -0.1193324198D+00  0.6899906659D-01
      0.1881288540D+01 -0.1608541517D+00  0.3164239610D+00
      0.5442492580D+00  0.1143456438D+01  0.7443082909D+00
 SP   1 1.00       0.000000000000
      0.1687144782D+00  0.1000000000D+01  0.1000000000D+01
 D   1 1.00       0.000000000000
      0.8000000000D+00  0.1000000000D+01
 ****
      4 0
 S   6 1.00       0.000000000000
      0.3047524880D+04  0.1834737132D-02
      0.4573695180D+03  0.1403732281D-01
      0.1039486850D+03  0.6884262226D-01
      0.2921015530D+02  0.2321844432D+00
      0.9286662960D+01  0.4679413484D+00
      0.3163926960D+01  0.3623119853D+00
 SP   3 1.00       0.000000000000
      0.7868272350D+01 -0.1193324198D+00  0.6899906659D-01
      0.1881288540D+01 -0.1608541517D+00  0.3164239610D+00
      0.5442492580D+00  0.1143456438D+01  0.7443082909D+00
 SP   1 1.00       0.000000000000
      0.1687144782D+00  0.1000000000D+01  0.1000000000D+01
 D   1 1.00       0.000000000000
      0.8000000000D+00  0.1000000000D+01
 ****
      5 0
 S   6 1.00       0.000000000000
      0.3047524880D+04  0.1834737132D-02
      0.4573695180D+03  0.1403732281D-01
      0.1039486850D+03  0.6884262226D-01
      0.2921015530D+02  0.2321844432D+00
      0.9286662960D+01  0.4679413484D+00
      0.3163926960D+01  0.3623119853D+00
 SP   3 1.00       0.000000000000
      0.7868272350D+01 -0.1193324198D+00  0.6899906659D-01
      0.1881288540D+01 -0.1608541517D+00  0.3164239610D+00
      0.5442492580D+00  0.1143456438D+01  0.7443082909D+00
 SP   1 1.00       0.000000000000
      0.1687144782D+00  0.1000000000D+01  0.1000000000D+01
 D   1 1.00       0.000000000000
      0.8000000000D+00  0.1000000000D+01
 ****
      6 0
 S   6 1.00       0.000000000000
      0.3047524880D+04  0.1834737132D-02
      0.4573695180D+03  0.1403732281D-01
      0.1039486850D+03  0.6884262226D-01
      0.2921015530D+02  0.2321844432D+00
      0.9286662960D+01  0.4679413484D+00
      0.3163926960D+01  0.3623119853D+00
 SP   3 1.00       0.000000000000
      0.7868272350D+01 -0.1193324198D+00  0.6899906659D-01
      0.1881288540D+01 -0.1608541517D+00  0.3164239610D+00
      0.5442492580D+00  0.1143456438D+01  0.7443082909D+00
 SP   1 1.00       0.000000000000
      0.1687144782D+00  0.1000000000D+01  0.1000000000D+01
 D   1 1.00       0.000000000000
      0.8000000000D+00  0.1000000000D+01
 ****
      7 0
 S   6 1.00       0.000000000000
      0.3047524880D+04  0.1834737132D-02
      0.4573695180D+03  0.1403732281D-01
      0.1039486850D+03  0.6884262226D-01
      0.2921015530D+02  0.2321844432D+00
      0.9286662960D+01  0.4679413484D+00
      0.3163926960D+01  0.3623119853D+00
 SP   3 1.00       0.000000000000
      0.7868272350D+01 -0.1193324198D+00  0.6899906659D-01
      0.1881288540D+01 -0.1608541517D+00  0.3164239610D+00
      0.5442492580D+00  0.1143456438D+01  0.7443082909D+00
 SP   1 1.00       0.000000000000
      0.1687144782D+00  0.1000000000D+01  0.1000000000D+01
 D   1 1.00       0.000000000000
      0.8000000000D+00  0.1000000000D+01
 ****
      8 0
 S   6 1.00       0.000000000000
      0.3047524880D+04  0.1834737132D-02
      0.4573695180D+03  0.1403732281D-01
      0.1039486850D+03  0.6884262226D-01
      0.2921015530D+02  0.2321844432D+00
      0.9286662960D+01  0.4679413484D+00
      0.3163926960D+01  0.3623119853D+00
 SP   3 1.00       0.000000000000
      0.7868272350D+01 -0.1193324198D+00  0.6899906659D-01
      0.1881288540D+01 -0.1608541517D+00  0.3164239610D+00
      0.5442492580D+00  0.1143456438D+01  0.7443082909D+00
 SP   1 1.00       0.000000000000
      0.1687144782D+00  0.1000000000D+01  0.1000000000D+01
 D   1 1.00       0.000000000000
      0.8000000000D+00  0.1000000000D+01
 ****
      9 0
 S   6 1.00       0.000000000000
      0.3047524880D+04  0.1834737132D-02
      0.4573695180D+03  0.1403732281D-01
      0.1039486850D+03  0.6884262226D-01
      0.2921015530D+02  0.2321844432D+00
      0.9286662960D+01  0.4679413484D+00
      0.3163926960D+01  0.3623119853D+00
 SP   3 1.00       0.000000000000
      0.7868272350D+01 -0.1193324198D+00  0.6899906659D-01
      0.1881288540D+01 -0.1608541517D+00  0.3164239610D+00
      0.5442492580D+00  0.1143456438D+01  0.7443082909D+00
 SP   1 1.00       0.000000000000
      0.1687144782D+00  0.1000000000D+01  0.1000000000D+01
 D   1 1.00       0.000000000000
      0.8000000000D+00  0.1000000000D+01
 ****
     10 0
 S   6 1.00       0.000000000000
      0.3047524880D+04  0.1834737132D-02
      0.4573695180D+03  0.1403732281D-01
      0.1039486850D+03  0.6884262226D-01
      0.2921015530D+02  0.2321844432D+00
      0.9286662960D+01  0.4679413484D+00
      0.3163926960D+01  0.3623119853D+00
 SP   3 1.00       0.000000000000
      0.7868272350D+01 -0.1193324198D+00  0.6899906659D-01
      0.1881288540D+01 -0.1608541517D+00  0.3164239610D+00
      0.5442492580D+00  0.1143456438D+01  0.7443082909D+00
 SP   1 1.00       0.000000000000
      0.1687144782D+00  0.1000000000D+01  0.1000000000D+01
 D   1 1.00       0.000000000000
      0.8000000000D+00  0.1000000000D+01
 ****
     11 0
 S   3 1.00       0.000000000000
      0.1873113696D+02  0.3349460434D-01
      0.2825394365D+01  0.2347269535D+00
      0.6401216923D+00  0.8137573261D+00
 S   1 1.00       0.000000000000
      0.1612777588D+00  0.1000000000D+01
 P   1 1.00       0.000000000000
      0.1100000000D+01  0.1000000000D+01
 ****
     12 0
 S   3 1.00       0.000000000000
      0.1873113696D+02  0.3349460434D-01
      0.2825394365D+01  0.2347269535D+00
      0.6401216923D+00  0.8137573261D+00
 S   1 1.00       0.000000000000
      0.1612777588D+00  0.1000000000D+01
 P   1 1.00       0.000000000000
      0.1100000000D+01  0.1000000000D+01
 ****
     13 0
 S   3 1.00       0.000000000000
      0.1873113696D+02  0.3349460434D-01
      0.2825394365D+01  0.2347269535D+00
      0.6401216923D+00  0.8137573261D+00
 S   1 1.00       0.000000000000
      0.1612777588D+00  0.1000000000D+01
 P   1 1.00       0.000000000000
      0.1100000000D+01  0.1000000000D+01
 ****
     14 0
 S   3 1.00       0.000000000000
      0.1873113696D+02  0.3349460434D-01
      0.2825394365D+01  0.2347269535D+00
      0.6401216923D+00  0.8137573261D+00
 S   1 1.00       0.000000000000
      0.1612777588D+00  0.1000000000D+01
 P   1 1.00       0.000000000000
      0.1100000000D+01  0.1000000000D+01
 ****
     15 0
 S   3 1.00       0.000000000000
      0.1873113696D+02  0.3349460434D-01
      0.2825394365D+01  0.2347269535D+00
      0.6401216923D+00  0.8137573261D+00
 S   1 1.00       0.000000000000
      0.1612777588D+00  0.1000000000D+01
 P   1 1.00       0.000000000000
      0.1100000000D+01  0.1000000000D+01
 ****
     16 0
 S   3 1.00       0.000000000000
      0.1873113696D+02  0.3349460434D-01
      0.2825394365D+01  0.2347269535D+00
      0.6401216923D+00  0.8137573261D+00
 S   1 1.00       0.000000000000
      0.1612777588D+00  0.1000000000D+01
 P   1 1.00       0.000000000000
      0.1100000000D+01  0.1000000000D+01
 ****
     17 0
 S   3 1.00       0.000000000000
      0.1873113696D+02  0.3349460434D-01
      0.2825394365D+01  0.2347269535D+00
      0.6401216923D+00  0.8137573261D+00
 S   1 1.00       0.000000000000
      0.1612777588D+00  0.1000000000D+01
 P   1 1.00       0.000000000000
      0.1100000000D+01  0.1000000000D+01
 ****
     18 0
 S   3 1.00       0.000000000000
      0.1873113696D+02  0.3349460434D-01
      0.2825394365D+01  0.2347269535D+00
      0.6401216923D+00  0.8137573261D+00
 S   1 1.00       0.000000000000
      0.1612777588D+00  0.1000000000D+01
 P   1 1.00       0.000000000000
      0.1100000000D+01  0.1000000000D+01
 ****

 There are    38 symmetry adapted cartesian basis functions of AG  symmetry.
 There are    11 symmetry adapted cartesian basis functions of B1G symmetry.
 There are    13 symmetry adapted cartesian basis functions of B2G symmetry.
 There are    33 symmetry adapted cartesian basis functions of B3G symmetry.
 There are    11 symmetry adapted cartesian basis functions of AU  symmetry.
 There are    38 symmetry adapted cartesian basis functions of B1U symmetry.
 There are    33 symmetry adapted cartesian basis functions of B2U symmetry.
 There are    13 symmetry adapted cartesian basis functions of B3U symmetry.
 There are    38 symmetry adapted basis functions of AG  symmetry.
 There are    11 symmetry adapted basis functions of B1G symmetry.
 There are    13 symmetry adapted basis functions of B2G symmetry.
 There are    33 symmetry adapted basis functions of B3G symmetry.
 There are    11 symmetry adapted basis functions of AU  symmetry.
 There are    38 symmetry adapted basis functions of B1U symmetry.
 There are    33 symmetry adapted basis functions of B2U symmetry.
 There are    13 symmetry adapted basis functions of B3U symmetry.
   190 basis functions,   336 primitive gaussians,   190 cartesian basis functions
    34 alpha electrons       34 beta electrons
       nuclear repulsion energy       458.4330499695 Hartrees.
 IExCor= 1009 DFT=T Ex+Corr=PBE1PBE ExCW=0 ScaHFX=  0.250000
 ScaDFX=  0.750000  0.750000  1.000000  1.000000 ScalE2=  1.000000  1.000000
 IRadAn=      5 IRanWt=     -1 IRanGd=            0 ICorTp=0 IEmpDi=141
 NAtoms=   18 NActive=   18 NUniq=    5 SFac= 4.00D+00 NAtFMM=   60 NAOKFM=F Big=F
 Integral buffers will be    131072 words long.
 Regular integral format.
 Two-electron integral symmetry is turned on.
 R6Disp:  Grimme-D3(BJ) Dispersion energy=       -0.0185226351 Hartrees.
 Nuclear repulsion after empirical dispersion term =      458.4145273344 Hartrees.
 ------------------------------------------------------------------------------
 Polarizable Continuum Model (PCM)
 =================================
 Model                : PCM.
 Atomic radii         : UFF (Universal Force Field).
 Polarization charges : Total charges.
 Charge compensation  : None.
 Solution method      : On-the-fly selection.
 Cavity type          : Scaled VdW (van der Waals Surface) (Alpha=1.100).
 Cavity algorithm     : GePol (No added spheres)
                        Default sphere list used, NSphG=   18.
                        Lebedev-Laikov grids with approx.  5.0 points / Ang**2.
                        Smoothing algorithm: York/Karplus (Gamma=1.0000).
                        Polarization charges: spherical gaussians, with
                                              point-specific exponents (IZeta= 3).
                        Self-potential: point-specific (ISelfS= 7).
                        Self-field    : sphere-specific E.n sum rule (ISelfD= 2).
 1st derivatives      : Analytical E(r).r(x)/FMM algorithm (CHGder, D1EAlg=3).
                        Cavity 1st derivative terms included.
 Solvent              : Toluene, Eps=   2.374100 Eps(inf)=   2.238315
 ------------------------------------------------------------------------------
 Spheres list:
 ISph  on   Nord     Re0    Alpha      Xe            Ye            Ze
    1   C      1    1.9255  1.100     -0.000000      1.240460      1.399140
    2   C      2    1.9255  1.100     -0.000000      2.426000      0.706640
    3   C      3    1.9255  1.100      0.000000      2.426000     -0.706640
    4   C      4    1.9255  1.100      0.000000      1.240460     -1.399140
    5   C      5    1.9255  1.100      0.000000      0.000000     -0.714230
    6   C      6    1.9255  1.100     -0.000000      0.000000      0.714230
    7   C      7    1.9255  1.100     -0.000000     -1.240460      1.399140
    8   C      8    1.9255  1.100     -0.000000     -1.240460     -1.399140
    9   C      9    1.9255  1.100     -0.000000     -2.426000     -0.706640
   10   C     10    1.9255  1.100     -0.000000     -2.426000      0.706640
   11   H     11    1.4430  1.100     -0.000000      1.236700      2.486200
   12   H     12    1.4430  1.100     -0.000000      3.369700      1.243970
   13   H     13    1.4430  1.100      0.000000      3.369700     -1.243970
   14   H     14    1.4430  1.100      0.000000      1.236700     -2.486200
   15   H     15    1.4430  1.100     -0.000000     -1.236700      2.486200
   16   H     16    1.4430  1.100     -0.000000     -1.236700     -2.486200
   17   H     17    1.4430  1.100     -0.000000     -3.369700     -1.243970
   18   H     18    1.4430  1.100     -0.000000     -3.369700      1.243970
 ------------------------------------------------------------------------------
 GePol: Number of generator spheres                  =      18
 GePol: Total number of spheres                      =      18
 GePol: Number of exposed spheres                    =      18 (100.00%)
 GePol: Number of points                             =    1468
 GePol: Average weight of points                     =       0.13
 GePol: Minimum weight of points                     =   0.28D-07
 GePol: Maximum weight of points                     =    0.20577
 GePol: Number of points with low weight             =      84
 GePol: Fraction of low-weight points (<1% of avg)   =       5.72%
 GePol: Cavity surface area                          =    195.522 Ang**2
 GePol: Cavity volume                                =    198.173 Ang**3
 Leave Link  301 at Tue Jun  7 17:30:15 2022, MaxMem=  1342177280 cpu:               0.5 elap:               0.1
 (Enter /gpfs1/apps/software/Gaussian16/AVX/g16/l302.exe)
 NPDir=0 NMtPBC=     1 NCelOv=     1 NCel=       1 NClECP=     1 NCelD=      1
         NCelK=      1 NCelE2=     1 NClLst=     1 CellRange=     0.0.
 One-electron integrals computed using PRISM.
 One-electron integral symmetry used in STVInt
 NBasis=   190 RedAO= T EigKep=  2.99D-04  NBF=    38    11    13    33    11    38    33    13
 NBsUse=   190 1.00D-06 EigRej= -1.00D+00 NBFU=    38    11    13    33    11    38    33    13
 Precomputing XC quadrature grid using
 IXCGrd= 4 IRadAn=           5 IRanWt=          -1 IRanGd=           0 AccXCQ= 0.00D+00.
 Generated NRdTot=       0 NPtTot=           0 NUsed=           0 NTot=          32
 NSgBfM=   190   190   190   190   190 MxSgAt=    18 MxSgA2=    18.
 Leave Link  302 at Tue Jun  7 17:30:16 2022, MaxMem=  1342177280 cpu:               1.5 elap:               0.4
 (Enter /gpfs1/apps/software/Gaussian16/AVX/g16/l303.exe)
 DipDrv:  MaxL=1.
 Leave Link  303 at Tue Jun  7 17:30:16 2022, MaxMem=  1342177280 cpu:               0.2 elap:               0.0
 (Enter /gpfs1/apps/software/Gaussian16/AVX/g16/l308.exe)
 Leave Link  308 at Tue Jun  7 17:30:19 2022, MaxMem=  1342177280 cpu:               0.2 elap:               0.1
 (Enter /gpfs1/apps/software/Gaussian16/AVX/g16/l401.exe)
 ExpMin= 1.61D-01 ExpMax= 3.05D+03 ExpMxC= 4.57D+02 IAcc=3 IRadAn=         5 AccDes= 0.00D+00
 Harris functional with IExCor= 1009 and IRadAn=       5 diagonalized for initial guess.
 HarFok:  IExCor= 1009 AccDes= 0.00D+00 IRadAn=         5 IDoV= 1 UseB2=F ITyADJ=14
 ICtDFT=  3500011 ScaDFX=  1.000000  1.000000  1.000000  1.000000
 FoFCou: FMM=F IPFlag=           0 FMFlag=      100000 FMFlg1=           0
         NFxFlg=           0 DoJE=T BraDBF=F KetDBF=T FulRan=T
         wScrn=  0.000000 ICntrl=       500 IOpCl=  0 I1Cent=   200000004 NGrid=           0
         NMat0=    1 NMatS0=      1 NMatT0=    0 NMatD0=    1 NMtDS0=    0 NMtDT0=    0
 Petite list used in FoFCou.
 Harris En= -385.596418221819    
 JPrj=0 DoOrth=F DoCkMO=F.
 Initial guess orbital symmetries:
       Occupied  (AG) (B2U) (B1U) (B3G) (AG) (B2U) (B1U) (B3G)
                 (AG) (B1U) (AG) (B2U) (B1U) (AG) (B3G) (B2U) (B1U)
                 (AG) (B2U) (B3G) (AG) (AG) (B2U) (B1U) (B3G) (B1U)
                 (B3U) (B2U) (B3G) (AG) (B1G) (B2G) (B3U) (AU)
       Virtual   (B1G) (B2G) (B3U) (AU) (AG) (B2U) (B1U) (B2G)
                 (B1U) (B2U) (AG) (B3G) (B1U) (B3G) (AG) (B1U)
                 (B3G) (B2U) (AG) (B2U) (AG) (B1U) (B3G) (B1U)
                 (B2U) (B3U) (B1G) (AG) (B3G) (B2U) (B2G) (B1U)
                 (B3G) (AG) (B2U) (B3U) (B1U) (AG) (AU) (B2G) (B3U)
                 (B1G) (AU) (B1U) (B3G) (AG) (B1U) (B2U) (B2G)
                 (B3G) (AG) (B2U) (B1U) (AG) (B3G) (B2U) (B3G)
                 (B2U) (B1U) (AG) (B1U) (B3G) (B2U) (B3G) (B3U)
                 (B1G) (B1U) (B1G) (AG) (AU) (B3U) (B1G) (B2G)
                 (AU) (B3U) (AG) (B2U) (B3G) (B1U) (AG) (B2U) (AG)
                 (B2G) (AG) (B2U) (B3G) (B3U) (B1U) (B2U) (B1U)
                 (B3G) (AG) (B1U) (B2G) (AU) (B2U) (B1G) (B3G)
                 (AG) (B1U) (AU) (B2G) (B3U) (B3G) (B1G) (B2U)
                 (AG) (B3U) (B3G) (B1G) (B2U) (B2G) (B1U) (AG)
                 (AU) (B1U) (B2U) (B3U) (B3G) (AU) (AG) (B1G) (B1U)
                 (B2G) (B3G) (B2U) (B1U) (B2G) (AU) (AG) (B3G)
                 (B2U) (B1U) (AG) (B3G) (B1U) (AG) (B2U) (B3G)
                 (B1U) (B3G) (B1U) (B2U) (AG) (B1U) (B3G) (AG)
                 (B2U) (B1U) (AG) (B3G) (B2U) (B1U) (AG) (B3G)
                 (B1U)
 The electronic state of the initial guess is 1-AG.
 Leave Link  401 at Tue Jun  7 17:30:19 2022, MaxMem=  1342177280 cpu:               3.1 elap:               0.9
 (Enter /gpfs1/apps/software/Gaussian16/AVX/g16/l502.exe)
 Keep R1 ints in memory in symmetry-blocked form, NReq=186542383.
 FoFCou: FMM=F IPFlag=           0 FMFlag=           0 FMFlg1=           0
         NFxFlg=           0 DoJE=F BraDBF=F KetDBF=F FulRan=T
         wScrn=  0.000000 ICntrl=       600 IOpCl=  0 I1Cent=           0 NGrid=           0
         NMat0=    1 NMatS0=  18145 NMatT0=    0 NMatD0=    1 NMtDS0=    0 NMtDT0=    0
 Petite list used in FoFCou.
 Closed shell SCF:
 Using DIIS extrapolation, IDIIS=  1040.
 NGot=  1342177280 LenX=  1320190441 LenY=  1320153900
 Requested convergence on RMS density matrix=1.00D-08 within 128 cycles.
 Requested convergence on MAX density matrix=1.00D-06.
 Requested convergence on             energy=1.00D-06.
 No special actions if energy rises.

 Cycle   1  Pass 1  IDiag  1:
 Inv3:  Mode=1 IEnd=     6465072.
 Iteration    1 A*A^-1 deviation from unit magnitude is 5.33D-15 for   1450.
 Iteration    1 A*A^-1 deviation from orthogonality  is 3.35D-15 for   1466   1366.
 Iteration    1 A^-1*A deviation from unit magnitude is 5.33D-15 for   1450.
 Iteration    1 A^-1*A deviation from orthogonality  is 1.51D-15 for   1424    731.
 E= -385.268461539705    
 DIIS: error= 4.44D-02 at cycle   1 NSaved=   1.
 NSaved= 1 IEnMin= 1 EnMin= -385.268461539705     IErMin= 1 ErrMin= 4.44D-02
 ErrMax= 4.44D-02  0.00D+00 EMaxC= 1.00D-01 BMatC= 1.79D-01 BMatP= 1.79D-01
 IDIUse=3 WtCom= 5.56D-01 WtEn= 4.44D-01
 Coeff-Com:  0.100D+01
 Coeff-En:   0.100D+01
 Coeff:      0.100D+01
 Gap=     0.191 Goal=   None    Shift=    0.000
 GapD=    0.191 DampG=1.000 DampE=0.500 DampFc=0.5000 IDamp=-1.
 Damping current iteration by 5.00D-01
 RMSDP=4.96D-03 MaxDP=8.06D-02              OVMax= 1.31D-01

 Cycle   2  Pass 1  IDiag  1:
 E= -385.369210879447     Delta-E=       -0.100749339742 Rises=F Damp=T
 DIIS: error= 1.03D-02 at cycle   2 NSaved=   2.
 NSaved= 2 IEnMin= 2 EnMin= -385.369210879447     IErMin= 2 ErrMin= 1.03D-02
 ErrMax= 1.03D-02  0.00D+00 EMaxC= 1.00D-01 BMatC= 1.21D-02 BMatP= 1.79D-01
 IDIUse=3 WtCom= 8.97D-01 WtEn= 1.03D-01
 Coeff-Com: -0.117D+00 0.112D+01
 Coeff-En:   0.000D+00 0.100D+01
 Coeff:     -0.105D+00 0.110D+01
 Gap=     0.192 Goal=   None    Shift=    0.000
 RMSDP=1.53D-03 MaxDP=2.84D-02 DE=-1.01D-01 OVMax= 6.85D-02

 Cycle   3  Pass 1  IDiag  1:
 E= -385.462087614323     Delta-E=       -0.092876734876 Rises=F Damp=F
 DIIS: error= 3.21D-03 at cycle   3 NSaved=   3.
 NSaved= 3 IEnMin= 3 EnMin= -385.462087614323     IErMin= 3 ErrMin= 3.21D-03
 ErrMax= 3.21D-03  0.00D+00 EMaxC= 1.00D-01 BMatC= 1.27D-03 BMatP= 1.21D-02
 IDIUse=3 WtCom= 9.68D-01 WtEn= 3.21D-02
 Coeff-Com: -0.629D-01 0.239D+00 0.823D+00
 Coeff-En:   0.000D+00 0.000D+00 0.100D+01
 Coeff:     -0.609D-01 0.232D+00 0.829D+00
 Gap=     0.191 Goal=   None    Shift=    0.000
 RMSDP=3.62D-04 MaxDP=6.91D-03 DE=-9.29D-02 OVMax= 8.68D-03

 Cycle   4  Pass 1  IDiag  1:
 E= -385.463005434612     Delta-E=       -0.000917820289 Rises=F Damp=F
 DIIS: error= 1.65D-03 at cycle   4 NSaved=   4.
 NSaved= 4 IEnMin= 4 EnMin= -385.463005434612     IErMin= 4 ErrMin= 1.65D-03
 ErrMax= 1.65D-03  0.00D+00 EMaxC= 1.00D-01 BMatC= 3.19D-04 BMatP= 1.27D-03
 IDIUse=3 WtCom= 9.83D-01 WtEn= 1.65D-02
 Coeff-Com: -0.245D-01 0.692D-01 0.383D+00 0.572D+00
 Coeff-En:   0.000D+00 0.000D+00 0.100D+00 0.900D+00
 Coeff:     -0.241D-01 0.681D-01 0.379D+00 0.577D+00
 Gap=     0.191 Goal=   None    Shift=    0.000
 RMSDP=1.14D-04 MaxDP=2.69D-03 DE=-9.18D-04 OVMax= 5.02D-03

 Cycle   5  Pass 1  IDiag  1:
 E= -385.463277855171     Delta-E=       -0.000272420559 Rises=F Damp=F
 DIIS: error= 3.91D-04 at cycle   5 NSaved=   5.
 NSaved= 5 IEnMin= 5 EnMin= -385.463277855171     IErMin= 5 ErrMin= 3.91D-04
 ErrMax= 3.91D-04  0.00D+00 EMaxC= 1.00D-01 BMatC= 2.59D-05 BMatP= 3.19D-04
 IDIUse=3 WtCom= 9.96D-01 WtEn= 3.91D-03
 Coeff-Com: -0.621D-02 0.127D-01 0.107D+00 0.277D+00 0.609D+00
 Coeff-En:   0.000D+00 0.000D+00 0.000D+00 0.000D+00 0.100D+01
 Coeff:     -0.619D-02 0.126D-01 0.107D+00 0.276D+00 0.611D+00
 Gap=     0.191 Goal=   None    Shift=    0.000
 RMSDP=2.37D-05 MaxDP=6.23D-04 DE=-2.72D-04 OVMax= 1.19D-03

 Cycle   6  Pass 1  IDiag  1:
 E= -385.463301897838     Delta-E=       -0.000024042667 Rises=F Damp=F
 DIIS: error= 3.28D-05 at cycle   6 NSaved=   6.
 NSaved= 6 IEnMin= 6 EnMin= -385.463301897838     IErMin= 6 ErrMin= 3.28D-05
 ErrMax= 3.28D-05  0.00D+00 EMaxC= 1.00D-01 BMatC= 9.96D-08 BMatP= 2.59D-05
 IDIUse=1 WtCom= 1.00D+00 WtEn= 0.00D+00
 Coeff-Com: -0.144D-02 0.264D-02 0.246D-01 0.680D-01 0.165D+00 0.741D+00
 Coeff:     -0.144D-02 0.264D-02 0.246D-01 0.680D-01 0.165D+00 0.741D+00
 Gap=     0.191 Goal=   None    Shift=    0.000
 RMSDP=3.07D-06 MaxDP=6.74D-05 DE=-2.40D-05 OVMax= 2.00D-04

 Cycle   7  Pass 1  IDiag  1:
 E= -385.463301914173     Delta-E=       -0.000000016335 Rises=F Damp=F
 DIIS: error= 3.06D-05 at cycle   7 NSaved=   7.
 NSaved= 7 IEnMin= 7 EnMin= -385.463301914173     IErMin= 7 ErrMin= 3.06D-05
 ErrMax= 3.06D-05  0.00D+00 EMaxC= 1.00D-01 BMatC= 8.17D-08 BMatP= 9.96D-08
 IDIUse=1 WtCom= 1.00D+00 WtEn= 0.00D+00
 Coeff-Com: -0.977D-04 0.222D-04 0.122D-02 0.622D-02 0.237D-01 0.484D+00
 Coeff-Com:  0.485D+00
 Coeff:     -0.977D-04 0.222D-04 0.122D-02 0.622D-02 0.237D-01 0.484D+00
 Coeff:      0.485D+00
 Gap=     0.191 Goal=   None    Shift=    0.000
 RMSDP=1.81D-06 MaxDP=3.84D-05 DE=-1.63D-08 OVMax= 1.13D-04

 Cycle   8  Pass 1  IDiag  1:
 E= -385.463302003762     Delta-E=       -0.000000089589 Rises=F Damp=F
 DIIS: error= 4.97D-06 at cycle   8 NSaved=   8.
 NSaved= 8 IEnMin= 8 EnMin= -385.463302003762     IErMin= 8 ErrMin= 4.97D-06
 ErrMax= 4.97D-06  0.00D+00 EMaxC= 1.00D-01 BMatC= 8.26D-10 BMatP= 8.17D-08
 IDIUse=1 WtCom= 1.00D+00 WtEn= 0.00D+00
 Coeff-Com:  0.576D-04-0.144D-03-0.125D-02-0.257D-02-0.452D-02 0.577D-01
 Coeff-Com:  0.128D+00 0.823D+00
 Coeff:      0.576D-04-0.144D-03-0.125D-02-0.257D-02-0.452D-02 0.577D-01
 Coeff:      0.128D+00 0.823D+00
 Gap=     0.191 Goal=   None    Shift=    0.000
 RMSDP=2.36D-07 MaxDP=3.69D-06 DE=-8.96D-08 OVMax= 2.02D-05

 Cycle   9  Pass 1  IDiag  1:
 E= -385.463302004821     Delta-E=       -0.000000001059 Rises=F Damp=F
 DIIS: error= 3.73D-07 at cycle   9 NSaved=   9.
 NSaved= 9 IEnMin= 9 EnMin= -385.463302004821     IErMin= 9 ErrMin= 3.73D-07
 ErrMax= 3.73D-07  0.00D+00 EMaxC= 1.00D-01 BMatC= 1.48D-11 BMatP= 8.26D-10
 IDIUse=1 WtCom= 1.00D+00 WtEn= 0.00D+00
 Coeff-Com:  0.112D-04-0.203D-04-0.245D-03-0.589D-03-0.149D-02-0.923D-02
 Coeff-Com:  0.469D-02 0.149D+00 0.858D+00
 Coeff:      0.112D-04-0.203D-04-0.245D-03-0.589D-03-0.149D-02-0.923D-02
 Coeff:      0.469D-02 0.149D+00 0.858D+00
 Gap=     0.191 Goal=   None    Shift=    0.000
 RMSDP=3.84D-08 MaxDP=5.82D-07 DE=-1.06D-09 OVMax= 2.31D-06

 Cycle  10  Pass 1  IDiag  1:
 E= -385.463302004846     Delta-E=       -0.000000000025 Rises=F Damp=F
 DIIS: error= 7.14D-08 at cycle  10 NSaved=  10.
 NSaved=10 IEnMin=10 EnMin= -385.463302004846     IErMin=10 ErrMin= 7.14D-08
 ErrMax= 7.14D-08  0.00D+00 EMaxC= 1.00D-01 BMatC= 1.69D-13 BMatP= 1.48D-11
 IDIUse=1 WtCom= 1.00D+00 WtEn= 0.00D+00
 Coeff-Com: -0.185D-05 0.444D-05 0.426D-04 0.874D-04 0.193D-03-0.956D-03
 Coeff-Com: -0.324D-02-0.208D-01-0.934D-01 0.112D+01
 Coeff:     -0.185D-05 0.444D-05 0.426D-04 0.874D-04 0.193D-03-0.956D-03
 Coeff:     -0.324D-02-0.208D-01-0.934D-01 0.112D+01
 Gap=     0.191 Goal=   None    Shift=    0.000
 RMSDP=7.53D-09 MaxDP=2.00D-07 DE=-2.54D-11 OVMax= 7.61D-07

 Error on total polarization charges =  0.00536
 SCF Done:  E(RPBE1PBE) =  -385.463302005     A.U. after   10 cycles
            NFock= 10  Conv=0.75D-08     -V/T= 2.0090
 KE= 3.820333909680D+02 PE=-1.809898199651D+03 EE= 5.839869793438D+02
 Leave Link  502 at Tue Jun  7 17:30:33 2022, MaxMem=  1342177280 cpu:              46.5 elap:              11.9
 (Enter /gpfs1/apps/software/Gaussian16/AVX/g16/l801.exe)
 DoSCS=F DFT=T ScalE2(SS,OS)=  1.000000  1.000000
 ExpMin= 1.61D-01 ExpMax= 3.05D+03 ExpMxC= 4.57D+02 IAcc=3 IRadAn=         5 AccDes= 0.00D+00
 HarFok:  IExCor=  205 AccDes= 0.00D+00 IRadAn=         5 IDoV=-2 UseB2=F ITyADJ=14
 ICtDFT= 12500011 ScaDFX=  1.000000  1.000000  1.000000  1.000000
 Largest valence mixing into a core orbital is  6.82D-05
 Largest core mixing into a valence orbital is  1.52D-05
 Range of M.O.s used for correlation:    11   190
 NBasis=   190 NAE=    34 NBE=    34 NFC=    10 NFV=     0
 NROrb=    180 NOA=    24 NOB=    24 NVA=   156 NVB=   156

 **** Warning!!: The largest alpha MO coefficient is  0.12125076D+02

 Leave Link  801 at Tue Jun  7 17:30:37 2022, MaxMem=  1342177280 cpu:               1.7 elap:               0.6
 (Enter /gpfs1/apps/software/Gaussian16/AVX/g16/l914.exe)
 RHF ground state
 Keep R1, R2, and R3 ints in memory in symmetry-blocked form, NReq=227988731.
 FoFCou: FMM=F IPFlag=           0 FMFlag=           0 FMFlg1=           0
         NFxFlg=           0 DoJE=F BraDBF=F KetDBF=F FulRan=T
         wScrn=  0.000000 ICntrl=       600 IOpCl=  0 I1Cent=           0 NGrid=           0
         NMat0=    1 NMatS0=  18145 NMatT0=    0 NMatD0=    1 NMtDS0=    0 NMtDT0=    0
 Petite list used in FoFCou.
 MDV=  1342177280 DFT=T DoStab=F Mixed=T DoRPA=F DoScal=F NonHer=F
 NEqPCM:  Using equilibrium solvation (IEInf=0, Eps=   2.3741, EpsInf=   2.2383)
 Making orbital integer symmetry assigments:
 Orbital symmetries:
       Occupied  (AG) (B1U) (B2U) (AG) (B3G) (B1U) (B2U) (AG) (B3G)
                 (B1U) (AG) (B2U) (B1U) (AG) (B3G) (B2U) (B1U)
                 (AG) (B2U) (B3G) (AG) (B1U) (AG) (B3G) (B2U) (B1U)
                 (B3U) (B2U) (B3G) (B1G) (AG) (B2G) (B3U) (AU)
       Virtual   (B1G) (B2G) (B3U) (AG) (AU) (B2U) (B1U) (AG) (B3G)
                 (B1U) (B2U) (B2G) (B3G) (B1U) (AG) (B1U) (B3G)
                 (AG) (B2U) (B2U) (AG) (B1U) (B3U) (B1U) (B2U)
                 (B3G) (B1G) (AG) (B2G) (B3G) (B2U) (B1U) (B3G)
                 (B3U) (B2U) (AG) (AG) (AU) (B1U) (B2G) (B3U) (B1G)
                 (AU) (AG) (B1U) (B1U) (B3G) (B2G) (B2U) (B3G)
                 (AG) (B2U) (B1U) (B3G) (AG) (B3G) (B2U) (B2U)
                 (B1U) (AG) (B1U) (B3G) (B2U) (B3G) (B3U) (B1G)
                 (B1U) (AG) (B1G) (AU) (B3U) (B1G) (B2G) (AU) (B3U)
                 (AG) (B2U) (B3G) (B1U) (AG) (B2U) (AG) (B2G) (AG)
                 (B3G) (B2U) (B3U) (B1U) (B2U) (B1U) (B3G) (AG)
                 (B1U) (B2G) (AU) (B1G) (B2U) (B3G) (AG) (B1U)
                 (AU) (B2G) (B3G) (B3U) (B1G) (B2U) (AG) (B3U)
                 (B1G) (B2U) (B3G) (B2G) (B1U) (AG) (AU) (B1U)
                 (B2U) (B3U) (B3G) (AU) (B1G) (AG) (B1U) (B3G)
                 (B2G) (B2U) (B2G) (B1U) (AU) (AG) (B3G) (B2U)
                 (B1U) (AG) (B3G) (B1U) (AG) (B2U) (B3G) (B1U)
                 (B3G) (B1U) (B2U) (AG) (B1U) (B3G) (AG) (B2U)
                 (B1U) (AG) (B3G) (B2U) (B1U) (AG) (B3G) (B1U)
    80 initial guesses have been made.
 Convergence on wavefunction:    0.000001000000000
 Davidson Disk Diagonalization:  ConvIn= 1.00D-06 SkipCon=T Conv= 1.00D-06.
 Max sub-space:  2000 roots to seek:    80 dimension of matrix:         7488
 Iteration     1 Dimension    80 NMult     0 NNew     80
 CISAX will form    80 AO SS matrices at one time.
 NMat=    80 NSing=    80 JSym2X=-1.
 New state      1 was old state      3
 New state      2 was old state      1
 New state      3 was old state      6
 New state      4 was old state      8
 New state      5 was old state      9
 New state      6 was old state     11
 New state      7 was old state      2
 New state      8 was old state      4
 New state      9 was old state     10
 New state     10 was old state     13
 Excitation Energies [eV] at current iteration:
 Root      1 :     4.684030611696823
 Root      2 :     5.035100352697840
 Root      3 :     6.026495711148581
 Root      4 :     6.592573943564728
 Root      5 :     6.818959709230207
 Root      6 :     7.020311320851812
 Root      7 :     7.227766059065123
 Root      8 :     7.242669832583734
 Root      9 :     7.481279651771038
 Root     10 :     7.595030331502667
 Root     11 :     7.862155965175885
 Root     12 :     7.866997692319204
 Root     13 :     7.925741587386702
 Root     14 :     7.942744515540793
 Root     15 :     7.946393179316752
 Root     16 :     8.405596053380036
 Root     17 :     8.411791676339048
 Root     18 :     8.604594321592215
 Root     19 :     8.619798259796150
 Root     20 :     8.647121554542252
 Root     21 :     8.715141319416636
 Root     22 :     8.849352152690237
 Root     23 :     9.093325791379264
 Root     24 :     9.150409484590568
 Root     25 :     9.186601037423832
 Root     26 :     9.187950272233547
 Root     27 :     9.249548765878988
 Root     28 :     9.346539272961547
 Root     29 :     9.472150500462718
 Root     30 :     9.501131332928798
 Root     31 :     9.642698230129897
 Root     32 :     9.738897667596664
 Root     33 :     9.880504795740610
 Root     34 :     9.967763397667754
 Root     35 :     9.972389286929573
 Root     36 :    10.023520853912725
 Root     37 :    10.115464074220700
 Root     38 :    10.116205490622651
 Root     39 :    10.139673277474833
 Root     40 :    10.215765155900339
 Root     41 :    10.216835609292421
 Root     42 :    10.226944856906101
 Root     43 :    10.352828281887264
 Root     44 :    10.399045980718425
 Root     45 :    10.470247607013071
 Root     46 :    10.587599777557683
 Root     47 :    10.592299653135450
 Root     48 :    10.768577294927740
 Root     49 :    10.815082986299076
 Root     50 :    10.902663174887467
 Root     51 :    10.906810437561766
 Root     52 :    10.940696129071457
 Root     53 :    10.992816083661243
 Root     54 :    11.035414618977198
 Root     55 :    11.054138207801810
 Root     56 :    11.071988645337932
 Root     57 :    11.124478748407219
 Root     58 :    11.145668973431993
 Root     59 :    11.171207789595607
 Root     60 :    11.210410515326618
 Root     61 :    11.276289214543981
 Root     62 :    11.338824188846877
 Root     63 :    11.513750310819260
 Root     64 :    11.613738377845351
 Root     65 :    11.619374069467071
 Root     66 :    11.661701195891467
 Root     67 :    11.740442715473659
 Root     68 :    11.826858074528655
 Root     69 :    11.837201172056716
 Root     70 :    11.855074281892737
 Root     71 :    11.953183179516831
 Root     72 :    11.954518498248504
 Root     73 :    11.965163637804514
 Root     74 :    11.978909783760244
 Root     75 :    11.984832329982988
 Root     76 :    12.047427887237520
 Root     77 :    12.126319547113450
 Root     78 :    12.233447442110773
 Root     79 :    12.362208126540292
 Root     80 :    13.130003155780496
 Iteration     2 Dimension   160 NMult    80 NNew     80
 CISAX will form    80 AO SS matrices at one time.
 NMat=    80 NSing=    80 JSym2X=-1.
 Root      1 not converged, maximum delta is    0.005193230537320
 Root      2 not converged, maximum delta is    0.061192513484159
 Root      3 not converged, maximum delta is    0.008736927771088
 New state      4 was old state      7
 Root      4 not converged, maximum delta is    0.043357925366492
 New state      5 was old state      4
 Root      5 not converged, maximum delta is    0.008790755377315
 New state      6 was old state      8
 Root      6 not converged, maximum delta is    0.107594974714617
 New state      7 was old state      5
 Root      7 not converged, maximum delta is    0.024411753413360
 New state      8 was old state      6
 Root      8 not converged, maximum delta is    0.032704072008319
 New state      9 was old state     13
 Root      9 not converged, maximum delta is    0.095365187217887
 New state     10 was old state      9
 Root     10 not converged, maximum delta is    0.154947053763161
 Excitation Energies [eV] at current iteration:
 Root      1 :     4.652703054106109   Change is   -0.031327557590714
 Root      2 :     4.740239759254816   Change is   -0.294860593443024
 Root      3 :     6.018609857489681   Change is   -0.007885853658900
 Root      4 :     6.353660216108117   Change is   -0.874105842957007
 Root      5 :     6.546728260891434   Change is   -0.045845682673294
 Root      6 :     6.639362346372464   Change is   -0.603307486211270
 Root      7 :     6.795747518732324   Change is   -0.023212190497883
 Root      8 :     6.976432829797873   Change is   -0.043878491053939
 Root      9 :     7.011985525342138   Change is   -0.913756062044564
 Root     10 :     7.344708255775489   Change is   -0.136571395995549
 Root     11 :     7.559047429916752   Change is   -0.035982901585915
 Root     12 :     7.737906079783693   Change is   -0.208487099533059
 Root     13 :     7.807782119776050   Change is   -0.059215572543154
 Root     14 :     7.841780652413268   Change is   -0.020375312762617
 Root     15 :     7.894499973670544   Change is   -0.048244541870249
 Root     16 :     8.302474465467229   Change is   -0.103121587912805
 Root     17 :     8.372746909727443   Change is   -0.039044766611605
 Root     18 :     8.544516713954964   Change is   -0.060077607637252
 Root     19 :     8.576058177903930   Change is   -0.925073155024870
 Root     20 :     8.591637190562720   Change is   -0.028161069233430
 Root     21 :     8.622192165043234   Change is   -0.024929389499019
 Root     22 :     8.665722936697749   Change is   -0.049418382718888
 Root     23 :     8.807270273005962   Change is   -0.042081879684276
 Root     24 :     9.045976829277784   Change is   -0.047348962101480
 Root     25 :     9.096817528120347   Change is   -0.091132744113200
 Root     26 :     9.121734629772947   Change is   -0.028674854817623
 Root     27 :     9.149460807948383   Change is   -0.037140229475449
 Root     28 :     9.189649071302437   Change is   -0.059899694576550
 Root     29 :     9.230828842616171   Change is   -1.804585776361026
 Root     30 :     9.247867886532914   Change is   -0.968967722759505
 Root     31 :     9.250983921657792   Change is   -0.095555351303754
 Root     32 :     9.450531937030641   Change is   -0.021618563432077
 Root     33 :     9.597753128514785   Change is   -0.044945101615110
 Root     34 :     9.703454270290260   Change is   -0.035443397306404
 Root     35 :     9.853591408399076   Change is   -0.026913387341534
 Root     36 :     9.923708215246483   Change is   -0.044055182421270
 Root     37 :     9.927836752971503   Change is   -0.044552533958070
 Root     38 :     9.953618303536134   Change is   -0.186054973938701
 Root     39 :     9.975252490579150   Change is   -0.048268363333575
 Root     40 :    10.064235683247633   Change is   -0.051228390973067
 Root     41 :    10.075702740831604   Change is   -0.040502749791047
 Root     42 :    10.171675008136205   Change is   -0.044090147764133
 Root     43 :    10.196955961311403   Change is   -0.029988895594699
 Root     44 :    10.218328214691805   Change is   -0.180717766026621
 Root     45 :    10.298583616944175   Change is   -0.054244664943089
 Root     46 :    10.425831727067763   Change is   -0.044415879945308
 Root     47 :    10.493144870100751   Change is   -0.094454907456932
 Root     48 :    10.550295878439925   Change is   -0.042003774695525
 Root     49 :    10.729993712411996   Change is   -0.038583582515743
 Root     50 :    10.779922583820859   Change is   -0.035160402478217
 Root     51 :    10.806560776953257   Change is   -0.096102397934210
 Root     52 :    10.879055991801222   Change is   -0.027754445760544
 Root     53 :    10.892783177021432   Change is   -0.047912952050024
 Root     54 :    10.909926847403257   Change is   -0.082889236257985
 Root     55 :    10.981428710325117   Change is   -1.144890836788333
 Root     56 :    11.006633726856114   Change is   -0.117845021551104
 Root     57 :    11.006849942783928   Change is   -0.065138702554005
 Root     58 :    11.011395220687078   Change is   -0.042742987114732
 Root     59 :    11.110990441322345   Change is   -0.034678532109648
 Root     60 :    11.139108029896692   Change is   -0.032099759698916
 Root     61 :    11.150543085877269   Change is   -0.059867429449349
 Root     62 :    11.154308887432975   Change is   -0.672549187095679
 Root     63 :    11.213185500558206   Change is   -0.125638688288672
 Root     64 :    11.248499749821754   Change is   -0.027789464722229
 Root     65 :    11.385774270764342   Change is   -0.233599798702729
 Root     66 :    11.481261812878749   Change is   -0.032488497940511
 Root     67 :    11.539812984085982   Change is   -0.073925393759370
 Root     68 :    11.608337256695211   Change is   -0.053363939196256
 Root     69 :    11.685064242536507   Change is   -0.055378472937152
 Root     70 :    11.700056634952745   Change is   -0.137144537103971
 Root     71 :    11.789920335576884   Change is   -0.175243302227629
 Root     72 :    11.817294649611979   Change is   -0.037779632280758
 Root     73 :    11.867319167116023   Change is   -0.085864012400808
 Root     74 :    11.895273792116962   Change is   -1.234729363663535
 Root     75 :    11.916905821452854   Change is   -0.037612676795650
 Root     76 :    11.925650024392343   Change is   -0.053259759367902
 Root     77 :    11.939582542363045   Change is   -0.045249787619943
 Root     78 :    11.994098079115453   Change is   -0.053329808122065
 Root     79 :    12.177595851037658   Change is   -0.055851591073114
 Root     80 :    12.197056105842506   Change is   -0.165152020697785
 Iteration     3 Dimension   170 NMult   160 NNew     10
 CISAX will form    10 AO SS matrices at one time.
 NMat=    10 NSing=    10 JSym2X=-1.
 Root      1 not converged, maximum delta is    0.000604772158668
 Root      2 not converged, maximum delta is    0.002347248695591
 Root      3 not converged, maximum delta is    0.000667235476787
 Root      4 not converged, maximum delta is    0.005516098210189
 Root      5 not converged, maximum delta is    0.001935809040521
 Root      6 not converged, maximum delta is    0.005173442622793
 Root      7 not converged, maximum delta is    0.001371835144937
 Root      8 not converged, maximum delta is    0.002093727420107
 Root      9 not converged, maximum delta is    0.005950002149851
 Root     10 not converged, maximum delta is    0.001289891889658
 Excitation Energies [eV] at current iteration:
 Root      1 :     4.652515039138222   Change is   -0.000188014967887
 Root      2 :     4.738693402781048   Change is   -0.001546356473768
 Root      3 :     6.018534733389080   Change is   -0.000075124100601
 Root      4 :     6.341957866405455   Change is   -0.011702349702662
 Root      5 :     6.546270445411875   Change is   -0.000457815479559
 Root      6 :     6.634801259435466   Change is   -0.004561086936997
 Root      7 :     6.795541598045778   Change is   -0.000205920686546
 Root      8 :     6.975926249894818   Change is   -0.000506579903055
 Root      9 :     7.006219894977106   Change is   -0.005765630365032
 Root     10 :     7.343830567279889   Change is   -0.000877688495599
 Iteration     4 Dimension   180 NMult   170 NNew     10
 CISAX will form    10 AO SS matrices at one time.
 NMat=    10 NSing=    10 JSym2X=-1.
 Root      1 not converged, maximum delta is    0.000025827245649
 Root      2 not converged, maximum delta is    0.000155645605049
 Root      3 not converged, maximum delta is    0.000020397551016
 Root      4 not converged, maximum delta is    0.000382150717861
 Root      5 not converged, maximum delta is    0.000169512826802
 Root      6 not converged, maximum delta is    0.000458980586017
 Root      7 not converged, maximum delta is    0.000059446864600
 Root      8 not converged, maximum delta is    0.000285980047245
 Root      9 not converged, maximum delta is    0.001210523133001
 Root     10 not converged, maximum delta is    0.000199868863513
 Excitation Energies [eV] at current iteration:
 Root      1 :     4.652514251231765   Change is   -0.000000787906457
 Root      2 :     4.738687225686512   Change is   -0.000006177094536
 Root      3 :     6.018534590091957   Change is   -0.000000143297122
 Root      4 :     6.341863181762752   Change is   -0.000094684642703
 Root      5 :     6.546264488351998   Change is   -0.000005957059877
 Root      6 :     6.634770313558946   Change is   -0.000030945876521
 Root      7 :     6.795541174782800   Change is   -0.000000423262979
 Root      8 :     6.975923639380016   Change is   -0.000002610514802
 Root      9 :     7.006135519555069   Change is   -0.000084375422037
 Root     10 :     7.343808792832107   Change is   -0.000021774447782
 Iteration     5 Dimension   190 NMult   180 NNew     10
 CISAX will form    10 AO SS matrices at one time.
 NMat=    10 NSing=    10 JSym2X=-1.
 Root      1 not converged, maximum delta is    0.000001941573922
 Root      2 not converged, maximum delta is    0.000006394808131
 Root      3 not converged, maximum delta is    0.000001796370820
 Root      4 not converged, maximum delta is    0.000021484183601
 Root      5 not converged, maximum delta is    0.000018486976459
 Root      6 not converged, maximum delta is    0.000019164640955
 Root      7 not converged, maximum delta is    0.000002611818281
 Root      8 not converged, maximum delta is    0.000016667214987
 Root      9 not converged, maximum delta is    0.000072620640415
 Root     10 not converged, maximum delta is    0.000031796702301
 Excitation Energies [eV] at current iteration:
 Root      1 :     4.652514248536185   Change is   -0.000000002695580
 Root      2 :     4.738687205681046   Change is   -0.000000020005466
 Root      3 :     6.018534589248702   Change is   -0.000000000843256
 Root      4 :     6.341862878055334   Change is   -0.000000303707417
 Root      5 :     6.546264437978846   Change is   -0.000000050373152
 Root      6 :     6.634770183032409   Change is   -0.000000130526537
 Root      7 :     6.795541173821582   Change is   -0.000000000961218
 Root      8 :     6.975923624963781   Change is   -0.000000014416235
 Root      9 :     7.006134901980474   Change is   -0.000000617574596
 Root     10 :     7.343808579499475   Change is   -0.000000213332631
 Iteration     6 Dimension   200 NMult   190 NNew     10
 CISAX will form    10 AO SS matrices at one time.
 NMat=    10 NSing=    10 JSym2X=-1.
 Root      1 has converged.
 Root      2 has converged.
 Root      3 has converged.
 Root      4 not converged, maximum delta is    0.000001601968018
 Root      5 not converged, maximum delta is    0.000001489890906
 Root      6 not converged, maximum delta is    0.000001775874508
 Root      7 has converged.
 Root      8 has converged.
 Root      9 not converged, maximum delta is    0.000004331093504
 Root     10 not converged, maximum delta is    0.000003532163765
 Excitation Energies [eV] at current iteration:
 Root      1 :     4.652514248530120   Change is   -0.000000000006066
 Root      2 :     4.738687205581266   Change is   -0.000000000099779
 Root      3 :     6.018534589242599   Change is   -0.000000000006104
 Root      4 :     6.341862877221870   Change is   -0.000000000833464
 Root      5 :     6.546264437713373   Change is   -0.000000000265474
 Root      6 :     6.634770182258331   Change is   -0.000000000774078
 Root      7 :     6.795541173819345   Change is   -0.000000000002237
 Root      8 :     6.975923624905204   Change is   -0.000000000058577
 Root      9 :     7.006134898552279   Change is   -0.000000003428195
 Root     10 :     7.343808577338510   Change is   -0.000000002160966
 Iteration     7 Dimension   205 NMult   200 NNew      5
 CISAX will form     5 AO SS matrices at one time.
 NMat=     5 NSing=     5 JSym2X=-1.
 Root      1 has converged.
 Root      2 has converged.
 Root      3 has converged.
 Root      4 has converged.
 Root      5 has converged.
 Root      6 has converged.
 Root      7 has converged.
 Root      8 has converged.
 Root      9 has converged.
 Root     10 has converged.
 Excitation Energies [eV] at current iteration:
 Root      1 :     4.652514248530096   Change is   -0.000000000000023
 Root      2 :     4.738687205581138   Change is   -0.000000000000129
 Root      3 :     6.018534589242578   Change is   -0.000000000000020
 Root      4 :     6.341862877219746   Change is   -0.000000000002125
 Root      5 :     6.546264437712328   Change is   -0.000000000001045
 Root      6 :     6.634770182253830   Change is   -0.000000000004501
 Root      7 :     6.795541173819341   Change is   -0.000000000000003
 Root      8 :     6.975923624905207   Change is    0.000000000000003
 Root      9 :     7.006134898531412   Change is   -0.000000000020867
 Root     10 :     7.343808577324383   Change is   -0.000000000014127
 Convergence achieved on expansion vectors.
 ***********************************************************************
 Excited states from <AA,BB:AA,BB> singles matrix:
 ***********************************************************************
 
 1PDM for each excited state written to RWF  633
 Ground to excited state transition densities written to RWF  633
 Ground to excited state transition electric dipole moments (Au):
       state          X           Y           Z        Dip. S.      Osc.
         1        -0.0000     -0.0265     -0.0000      0.0007      0.0001
         2         0.0000     -0.0000     -1.0029      1.0057      0.1168
         3        -0.0000     -0.0000     -0.0000      0.0000      0.0000
         4        -0.0000     -3.7441      0.0000     14.0180      2.1780
         5        -0.0000      0.0000     -0.0000      0.0000      0.0000
         6        -0.0000      0.0000      1.5055      2.2665      0.3684
         7         0.0000     -0.0000      0.0000      0.0000      0.0000
         8         0.0000      0.0000      0.0000      0.0000      0.0000
         9         0.0000      0.0000     -0.0000      0.0000      0.0000
        10        -0.0000     -0.0000     -0.0000      0.0000      0.0000
 Ground to excited state transition velocity dipole moments (Au):
       state          X           Y           Z        Dip. S.      Osc.
         1         0.0000     -0.0077      0.0000      0.0001      0.0002
         2        -0.0000      0.0000     -0.0152      0.0002      0.0009
         3        -0.0000      0.0000      0.0000      0.0000      0.0000
         4         0.0000      0.3857      0.0000      0.1488      0.4255
         5         0.0000     -0.0000      0.0000      0.0000      0.0000
         6         0.0000     -0.0000     -0.0864      0.0075      0.0204
         7         0.0000     -0.0000      0.0000      0.0000      0.0000
         8         0.0000      0.0000      0.0000      0.0000      0.0000
         9        -0.0000     -0.0000     -0.0000      0.0000      0.0000
        10         0.0000     -0.0000      0.0000      0.0000      0.0000
 Ground to excited state transition magnetic dipole moments (Au):
       state          X           Y           Z
         1         0.0000      0.0000      0.0000
         2         0.0000      0.0000      0.0000
         3         0.4295     -0.0000      0.0000
         4        -0.0000     -0.0000      0.0000
         5        -0.0000      0.0000     -0.0000
         6        -0.0000     -0.0000     -0.0000
         7         0.0000      0.0000     -0.2697
         8        -0.0000      0.1043     -0.0000
         9         1.2848     -0.0000      0.0000
        10        -0.0000     -0.0000     -0.0000
 Ground to excited state transition velocity quadrupole moments (Au):
       state          XX          YY          ZZ          XY          XZ          YZ
         1         0.0000      0.0000     -0.0000     -0.0000      0.0000     -0.0000
         2         0.0000      0.0000     -0.0000     -0.0000      0.0000      0.0000
         3        -0.0000     -0.0000      0.0000     -0.0000     -0.0000     -0.0057
         4        -0.0000      0.0000     -0.0000     -0.0000     -0.0000     -0.0000
         5        -0.0091     -0.0321      0.0878      0.0000      0.0000     -0.0000
         6        -0.0000      0.0000      0.0000      0.0000      0.0000     -0.0000
         7         0.0000      0.0000     -0.0000      0.1025     -0.0000      0.0000
         8        -0.0000      0.0000      0.0000      0.0000      0.0397     -0.0000
         9         0.0000      0.0000      0.0000     -0.0000      0.0000      0.3904
        10         0.0040     -0.0996     -0.0949      0.0000     -0.0000     -0.0000
 <0|del|b> * <b|rxdel|0> + <0|del|b> * <b|delr+rdel|0>
 Rotatory Strengths (R) in cgs (10**-40 erg-esu-cm/Gauss)
       state          XX          YY          ZZ    R(velocity)    E-M Angle
         1        -0.0000     -0.0000     -0.0000     -0.0000       90.00
         2        -0.0000     -0.0000      0.0000     -0.0000       90.00
         3        -0.0000     -0.0000     -0.0000     -0.0000       90.00
         4         0.0000     -0.0000     -0.0000     -0.0000       90.00
         5        -0.0000     -0.0000     -0.0000     -0.0000       90.00
         6        -0.0000      0.0000      0.0000      0.0000       90.00
         7        -0.0000     -0.0000     -0.0000     -0.0000       90.00
         8         0.0000     -0.0000      0.0000      0.0000       90.00
         9         0.0000     -0.0000     -0.0000     -0.0000       90.00
        10        -0.0000     -0.0000     -0.0000     -0.0000       90.00
 1/2[<0|r|b>*<b|rxdel|0> + (<0|rxdel|b>*<b|r|0>)*]
 Rotatory Strengths (R) in cgs (10**-40 erg-esu-cm/Gauss)
       state          XX          YY          ZZ     R(length)
         1         0.0000      0.0000      0.0000      0.0000
         2        -0.0000      0.0000      0.0000      0.0000
         3         0.0000     -0.0000      0.0000      0.0000
         4        -0.0000     -0.0000     -0.0000     -0.0000
         5        -0.0000     -0.0000     -0.0000     -0.0000
         6        -0.0000      0.0000      0.0000      0.0000
         7        -0.0000      0.0000      0.0000      0.0000
         8         0.0000     -0.0000      0.0000     -0.0000
         9        -0.0000      0.0000      0.0000     -0.0000
        10        -0.0000     -0.0000     -0.0000     -0.0000
  1/2[<0|del|b>*<b|r|0> + (<0|r|b>*<b|del|0>)*] (Au)
       state          X           Y           Z        Dip. S.   Osc.(frdel)
         1        -0.0000      0.0002     -0.0000     -0.0002     -0.0001
         2        -0.0000     -0.0000      0.0153     -0.0153     -0.0102
         3         0.0000     -0.0000     -0.0000      0.0000      0.0000
         4        -0.0000     -1.4441      0.0000      1.4441      0.9627
         5        -0.0000     -0.0000     -0.0000      0.0000      0.0000
         6        -0.0000     -0.0000     -0.1301      0.1301      0.0868
         7         0.0000      0.0000      0.0000     -0.0000     -0.0000
         8         0.0000      0.0000      0.0000     -0.0000     -0.0000
         9        -0.0000     -0.0000      0.0000     -0.0000     -0.0000
        10        -0.0000      0.0000     -0.0000      0.0000      0.0000

 Excitation energies and oscillator strengths:
 
 Excited State   1:      Singlet-B2U    4.6525 eV  266.49 nm  f=0.0001  <S**2>=0.000
      33 -> 35         0.50053
      34 -> 36        -0.49726
 This state for optimization and/or second-order correction.
 Total Energy, E(CIS/TDA) =  -385.292325252    
 Copying the excited state density for this state as the 1-particle RhoCI density.
 
 Excited State   2:      Singlet-B1U    4.7387 eV  261.64 nm  f=0.1168  <S**2>=0.000
      33 -> 36         0.18149
      34 -> 35         0.66951
 
 Excited State   3:      Singlet-B3G    6.0185 eV  206.00 nm  f=0.0000  <S**2>=0.000
      32 -> 35        -0.49265
      34 -> 37         0.50670
 
 Excited State   4:      Singlet-B2U    6.3419 eV  195.50 nm  f=2.1780  <S**2>=0.000
      33 -> 35         0.48386
      34 -> 36         0.48887
 
 Excited State   5:      Singlet-AG     6.5463 eV  189.40 nm  f=0.0000  <S**2>=0.000
      30 -> 35         0.13367
      32 -> 36         0.49506
      33 -> 37        -0.47905
 
 Excited State   6:      Singlet-B1U    6.6348 eV  186.87 nm  f=0.3684  <S**2>=0.000
      32 -> 37         0.18448
      33 -> 36         0.65506
      34 -> 35        -0.14612
 
 Excited State   7:      Singlet-B1G    6.7955 eV  182.45 nm  f=0.0000  <S**2>=0.000
      31 -> 35         0.70308
 
 Excited State   8:      Singlet-B2G    6.9759 eV  177.73 nm  f=0.0000  <S**2>=0.000
      29 -> 35         0.70058
 
 Excited State   9:      Singlet-B3G    7.0061 eV  176.97 nm  f=0.0000  <S**2>=0.000
      32 -> 35         0.49134
      34 -> 37         0.47588
 
 Excited State  10:      Singlet-AG     7.3438 eV  168.83 nm  f=0.0000  <S**2>=0.000
      30 -> 35         0.56004
      32 -> 36         0.18891
      33 -> 37         0.36819
 SavETr:  write IOETrn=   770 NScale= 10 NData=  16 NLR=1 NState=   10 LETran=     190.
 The selected state is a singlet.
 CISGrd: IGrad=2 NXY=1 DFT=T
 CISAX will form     1 AO SS matrices at one time.
 NMat=     1 NSing=     1 JSym2X=-1.
 GePol: Maximum number of non-zero 1st derivatives   =     189
 Leave Link  914 at Tue Jun  7 17:32:04 2022, MaxMem=  1342177280 cpu:             333.7 elap:              84.5
[...]
 188        3PX         0.00000   0.00000  -0.00000   0.00000   0.00000
 189        3PY        -0.00000  -0.00000   0.00000   0.00000   0.00000
 190        3PZ         0.00000   0.00000   0.00000  -0.00000  -0.00000
                         181       182       183       184       185
 181 17  H  1S          0.21456
 182        2S          0.10363   0.12834
 183        3PX         0.00000   0.00000   0.00023
 184        3PY         0.00000   0.00000   0.00000   0.00040
 185        3PZ         0.00000   0.00000   0.00000   0.00000   0.00021
 186 18  H  1S         -0.00001  -0.00064  -0.00000  -0.00000  -0.00000
 187        2S         -0.00064  -0.00261   0.00000   0.00000  -0.00004
 188        3PX         0.00000   0.00000   0.00000   0.00000   0.00000
 189        3PY         0.00000  -0.00000   0.00000   0.00000   0.00000
 190        3PZ        -0.00000  -0.00004   0.00000   0.00000   0.00000
                         186       187       188       189       190
 186 18  H  1S          0.21456
 187        2S          0.10363   0.12834
 188        3PX         0.00000   0.00000   0.00023
 189        3PY         0.00000   0.00000   0.00000   0.00040
 190        3PZ         0.00000   0.00000   0.00000   0.00000   0.00021
     Gross orbital populations:
                           1
   1 1   C  1S          1.99273
   2        2S          0.69449
   3        2PX         0.55478
   4        2PY         0.74976
   5        2PZ         0.73780
   6        3S          0.51864
   7        3PX         0.43785
   8        3PY         0.19064
   9        3PZ         0.26899
  10        4XX        -0.01923
  11        4YY         0.00849
  12        4ZZ         0.00812
  13        4XY         0.00747
  14        4XZ         0.00204
  15        4YZ         0.01022
  16 2   C  1S          1.99272
  17        2S          0.69316
  18        2PX         0.55210
  19        2PY         0.74432
  20        2PZ         0.73891
  21        3S          0.53227
  22        3PX         0.43978
  23        3PY         0.24588
  24        3PZ         0.18955
  25        4XX        -0.01919
  26        4YY         0.00759
  27        4ZZ         0.00704
  28        4XY         0.00354
  29        4XZ         0.00549
  30        4YZ         0.01220
  31 3   C  1S          1.99272
  32        2S          0.69316
  33        2PX         0.55210
  34        2PY         0.74432
  35        2PZ         0.73891
  36        3S          0.53227
  37        3PX         0.43978
  38        3PY         0.24588
  39        3PZ         0.18955
  40        4XX        -0.01919
  41        4YY         0.00759
  42        4ZZ         0.00704
  43        4XY         0.00354
  44        4XZ         0.00549
  45        4YZ         0.01220
  46 4   C  1S          1.99273
  47        2S          0.69449
  48        2PX         0.55478
  49        2PY         0.74976
  50        2PZ         0.73780
  51        3S          0.51864
  52        3PX         0.43785
  53        3PY         0.19064
  54        3PZ         0.26899
  55        4XX        -0.01923
  56        4YY         0.00849
  57        4ZZ         0.00812
  58        4XY         0.00747
  59        4XZ         0.00204
  60        4YZ         0.01022
  61 5   C  1S          1.99274
  62        2S          0.69484
  63        2PX         0.56165
  64        2PY         0.75985
  65        2PZ         0.72709
  66        3S          0.46201
  67        3PX         0.40728
  68        3PY         0.13613
  69        3PZ         0.16726
  70        4XX        -0.01851
  71        4YY         0.01134
  72        4ZZ         0.00918
  73        4XY         0.00767
  74        4XZ         0.00533
  75        4YZ         0.01218
  76 6   C  1S          1.99274
  77        2S          0.69484
  78        2PX         0.56165
  79        2PY         0.75985
  80        2PZ         0.72709
  81        3S          0.46201
  82        3PX         0.40728
  83        3PY         0.13613
  84        3PZ         0.16726
  85        4XX        -0.01851
  86        4YY         0.01134
  87        4ZZ         0.00918
  88        4XY         0.00767
  89        4XZ         0.00533
  90        4YZ         0.01218
  91 7   C  1S          1.99273
  92        2S          0.69449
  93        2PX         0.55478
  94        2PY         0.74976
  95        2PZ         0.73780
  96        3S          0.51864
  97        3PX         0.43785
  98        3PY         0.19064
  99        3PZ         0.26899
 100        4XX        -0.01923
 101        4YY         0.00849
 102        4ZZ         0.00812
 103        4XY         0.00747
 104        4XZ         0.00204
 105        4YZ         0.01022
 106 8   C  1S          1.99273
 107        2S          0.69449
 108        2PX         0.55478
 109        2PY         0.74976
 110        2PZ         0.73780
 111        3S          0.51864
 112        3PX         0.43785
 113        3PY         0.19064
 114        3PZ         0.26899
 115        4XX        -0.01923
 116        4YY         0.00849
 117        4ZZ         0.00812
 118        4XY         0.00747
 119        4XZ         0.00204
 120        4YZ         0.01022
 121 9   C  1S          1.99272
 122        2S          0.69316
 123        2PX         0.55210
 124        2PY         0.74432
 125        2PZ         0.73891
 126        3S          0.53227
 127        3PX         0.43978
 128        3PY         0.24588
 129        3PZ         0.18955
 130        4XX        -0.01919
 131        4YY         0.00759
 132        4ZZ         0.00704
 133        4XY         0.00354
 134        4XZ         0.00549
 135        4YZ         0.01220
 136 10  C  1S          1.99272
 137        2S          0.69316
 138        2PX         0.55210
 139        2PY         0.74432
 140        2PZ         0.73891
 141        3S          0.53227
 142        3PX         0.43978
 143        3PY         0.24588
 144        3PZ         0.18955
 145        4XX        -0.01919
 146        4YY         0.00759
 147        4ZZ         0.00704
 148        4XY         0.00354
 149        4XZ         0.00549
 150        4YZ         0.01220
 151 11  H  1S          0.52785
 152        2S          0.32272
 153        3PX         0.00291
 154        3PY         0.00187
 155        3PZ         0.00801
 156 12  H  1S          0.52798
 157        2S          0.31955
 158        3PX         0.00308
 159        3PY         0.00648
 160        3PZ         0.00340
 161 13  H  1S          0.52798
 162        2S          0.31955
 163        3PX         0.00308
 164        3PY         0.00648
 165        3PZ         0.00340
 166 14  H  1S          0.52785
 167        2S          0.32272
 168        3PX         0.00291
 169        3PY         0.00187
 170        3PZ         0.00801
 171 15  H  1S          0.52785
 172        2S          0.32272
 173        3PX         0.00291
 174        3PY         0.00187
 175        3PZ         0.00801
 176 16  H  1S          0.52785
 177        2S          0.32272
 178        3PX         0.00291
 179        3PY         0.00187
 180        3PZ         0.00801
 181 17  H  1S          0.52798
 182        2S          0.31955
 183        3PX         0.00308
 184        3PY         0.00648
 185        3PZ         0.00340
 186 18  H  1S          0.52798
 187        2S          0.31955
 188        3PX         0.00308
 189        3PY         0.00648
 190        3PZ         0.00340
          Condensed to atoms (all electrons):
               1          2          3          4          5          6
     1  C    5.048593   0.478849  -0.040072  -0.047600  -0.037316   0.482391
     2  C    0.478849   4.983098   0.464200  -0.040072  -0.023147  -0.033381
     3  C   -0.040072   0.464200   4.983098   0.478849  -0.033381  -0.023147
     4  C   -0.047600  -0.040072   0.478849   5.048593   0.482391  -0.037316
     5  C   -0.037316  -0.023147  -0.033381   0.482391   4.798692   0.422361
     6  C    0.482391  -0.033381  -0.023147  -0.037316   0.422361   4.798692
     7  C   -0.081472   0.007317  -0.000356   0.010559  -0.037316   0.482391
     8  C    0.010559  -0.000356   0.007317  -0.081472   0.482391  -0.037316
     9  C   -0.000356   0.000026  -0.000303   0.007317  -0.033381  -0.023147
    10  C    0.007317  -0.000303   0.000026  -0.000356  -0.023147  -0.033381
    11  H    0.376667  -0.038138   0.003851   0.000382   0.003864  -0.038299
    12  H   -0.032029   0.378896  -0.035635   0.003597   0.000762   0.002619
    13  H    0.003597  -0.035635   0.378896  -0.032029   0.002619   0.000762
    14  H    0.000382   0.003851  -0.038138   0.376667  -0.038299   0.003864
    15  H   -0.006421   0.000135   0.000011  -0.000164   0.003864  -0.038299
    16  H   -0.000164   0.000011   0.000135  -0.006421  -0.038299   0.003864
    17  H    0.000008  -0.000000   0.000002  -0.000162   0.002619   0.000762
    18  H   -0.000162   0.000002  -0.000000   0.000008   0.000762   0.002619
               7          8          9         10         11         12
     1  C   -0.081472   0.010559  -0.000356   0.007317   0.376667  -0.032029
     2  C    0.007317  -0.000356   0.000026  -0.000303  -0.038138   0.378896
     3  C   -0.000356   0.007317  -0.000303   0.000026   0.003851  -0.035635
     4  C    0.010559  -0.081472   0.007317  -0.000356   0.000382   0.003597
     5  C   -0.037316   0.482391  -0.033381  -0.023147   0.003864   0.000762
     6  C    0.482391  -0.037316  -0.023147  -0.033381  -0.038299   0.002619
     7  C    5.048593  -0.047600  -0.040072   0.478849  -0.006421  -0.000162
     8  C   -0.047600   5.048593   0.478849  -0.040072  -0.000164   0.000008
     9  C   -0.040072   0.478849   4.983098   0.464200   0.000011  -0.000000
    10  C    0.478849  -0.040072   0.464200   4.983098   0.000135   0.000002
    11  H   -0.006421  -0.000164   0.000011   0.000135   0.560740  -0.004433
    12  H   -0.000162   0.000008  -0.000000   0.000002  -0.004433   0.551014
    13  H    0.000008  -0.000162   0.000002  -0.000000  -0.000152  -0.003982
    14  H   -0.000164  -0.006421   0.000135   0.000011   0.000016  -0.000152
    15  H    0.376667   0.000382   0.003851  -0.038138   0.005310  -0.000009
    16  H    0.000382   0.376667  -0.038138   0.003851   0.000002  -0.000000
    17  H    0.003597  -0.032029   0.378896  -0.035635  -0.000000   0.000000
    18  H   -0.032029   0.003597  -0.035635   0.378896  -0.000009  -0.000000
              13         14         15         16         17         18
     1  C    0.003597   0.000382  -0.006421  -0.000164   0.000008  -0.000162
     2  C   -0.035635   0.003851   0.000135   0.000011  -0.000000   0.000002
     3  C    0.378896  -0.038138   0.000011   0.000135   0.000002  -0.000000
     4  C   -0.032029   0.376667  -0.000164  -0.006421  -0.000162   0.000008
     5  C    0.002619  -0.038299   0.003864  -0.038299   0.002619   0.000762
     6  C    0.000762   0.003864  -0.038299   0.003864   0.000762   0.002619
     7  C    0.000008  -0.000164   0.376667   0.000382   0.003597  -0.032029
     8  C   -0.000162  -0.006421   0.000382   0.376667  -0.032029   0.003597
     9  C    0.000002   0.000135   0.003851  -0.038138   0.378896  -0.035635
    10  C   -0.000000   0.000011  -0.038138   0.003851  -0.035635   0.378896
    11  H   -0.000152   0.000016   0.005310   0.000002  -0.000000  -0.000009
    12  H   -0.003982  -0.000152  -0.000009  -0.000000   0.000000  -0.000000
    13  H    0.551014  -0.004433  -0.000000  -0.000009  -0.000000   0.000000
    14  H   -0.004433   0.560740   0.000002   0.005310  -0.000009  -0.000000
    15  H   -0.000000   0.000002   0.560740   0.000016  -0.000152  -0.004433
    16  H   -0.000009   0.005310   0.000016   0.560740  -0.004433  -0.000152
    17  H   -0.000000  -0.000009  -0.000152  -0.004433   0.551014  -0.003982
    18  H    0.000000  -0.000000  -0.004433  -0.000152  -0.003982   0.551014
 Mulliken charges:
               1
     1  C   -0.162771
     2  C   -0.145354
     3  C   -0.145354
     4  C   -0.162771
     5  C    0.063963
     6  C    0.063963
     7  C   -0.162771
     8  C   -0.162771
     9  C   -0.145354
    10  C   -0.145354
    11  H    0.136638
    12  H    0.139505
    13  H    0.139505
    14  H    0.136638
    15  H    0.136638
    16  H    0.136638
    17  H    0.139505
    18  H    0.139505
 Sum of Mulliken charges =  -0.00000
 Mulliken charges with hydrogens summed into heavy atoms:
               1
     1  C   -0.026133
     2  C   -0.005849
     3  C   -0.005849
     4  C   -0.026133
     5  C    0.063963
     6  C    0.063963
     7  C   -0.026133
     8  C   -0.026133
     9  C   -0.005849
    10  C   -0.005849
 Electronic spatial extent (au):  <R**2>=           1302.2816
 Charge=             -0.0000 electrons
 Dipole moment (field-independent basis, Debye):
    X=              0.0000    Y=             -0.0000    Z=              0.0000  Tot=              0.0000
 Quadrupole moment (field-independent basis, Debye-Ang):
   XX=            -62.8939   YY=            -49.5343   ZZ=            -49.8572
   XY=              0.0000   XZ=             -0.0000   YZ=              0.0000
 Traceless Quadrupole moment (field-independent basis, Debye-Ang):
   XX=             -8.7987   YY=              4.5608   ZZ=              4.2379
   XY=              0.0000   XZ=             -0.0000   YZ=              0.0000
 Octapole moment (field-independent basis, Debye-Ang**2):
  XXX=              0.0000  YYY=             -0.0000  ZZZ=              0.0000  XYY=              0.0000
  XXY=              0.0000  XXZ=              0.0000  XZZ=              0.0000  YZZ=             -0.0000
  YYZ=             -0.0000  XYZ=             -0.0000
 Hexadecapole moment (field-independent basis, Debye-Ang**3):
 XXXX=            -65.8911 YYYY=          -1061.6859 ZZZZ=           -470.2508 XXXY=             -0.0000
 XXXZ=              0.0000 YYYX=             -0.0000 YYYZ=             -0.0000 ZZZX=              0.0000
 ZZZY=             -0.0000 XXYY=           -235.0409 XXZZ=           -109.3506 YYZZ=           -258.7923
 XXYZ=             -0.0000 YYXZ=              0.0000 ZZXY=             -0.0000
 N-N= 4.546264880812D+02 E-N=-1.802007050880D+03  KE= 3.818963434108D+02
 Symmetry AG   KE= 1.119516748666D+02
 Symmetry B1G  KE= 2.613848921941D+00
 Symmetry B2G  KE= 2.825234444094D+00
 Symmetry B3G  KE= 7.530115170856D+01
 Symmetry AU   KE= 1.754199470538D+00
 Symmetry B1U  KE= 1.067177011863D+02
 Symmetry B2U  KE= 7.724578515250D+01
 Symmetry B3U  KE= 3.486747660295D+00
 Orbital energies and kinetic energies (alpha):
                                 1                 2
  30         (B1G)--O         -0.335640          0.978030
  31         (AG)--O          -0.334696          1.418572
  32         (B2G)--O         -0.298718          1.066710
  33         (B3U)--O         -0.251011          1.129598
  34         (AU)--O          -0.222373          1.165081
  35         (B1G)--V         -0.039340          1.319035
  36         (B2G)--V         -0.009168          1.372317
  37         (B3U)--V          0.041280          1.368237
  38         (AU)--V           0.101100          1.537248
  39         (AG)--V           0.108819          0.922645
 Total kinetic energy from orbitals= 3.816819174635D+02
 No NMR shielding tensors so no spin-rotation constants.
 Leave Link  601 at Tue Jun  7 17:37:23 2022, MaxMem=  1342177280 cpu:               0.8 elap:               0.2
 (Enter /gpfs1/apps/software/Gaussian16/AVX/g16/l9999.exe)
 Electronic transition elements 
                 1             2             3             4             5 
      1  -0.385296D+03 -0.385292D+03 -0.385241D+03 -0.385232D+03 -0.385223D+03
      2   0.000000D+00  0.000000D+00  0.000000D+00  0.000000D+00  0.000000D+00
      3  -0.157504D-01  0.000000D+00  0.000000D+00 -0.386150D+01  0.000000D+00
      4   0.000000D+00 -0.104300D+01  0.000000D+00  0.000000D+00  0.161764D+01
      5   0.000000D+00  0.000000D+00  0.000000D+00  0.000000D+00  0.000000D+00
      6  -0.875012D-02  0.000000D+00  0.000000D+00  0.370875D+00  0.000000D+00
      7   0.000000D+00 -0.214527D-01  0.000000D+00  0.000000D+00 -0.796437D-01
      8   0.000000D+00  0.000000D+00  0.387522D+00  0.000000D+00  0.000000D+00
      9   0.000000D+00  0.000000D+00  0.000000D+00  0.000000D+00  0.000000D+00
     10   0.000000D+00  0.000000D+00  0.000000D+00  0.000000D+00  0.000000D+00
     11   0.000000D+00  0.000000D+00  0.000000D+00  0.000000D+00  0.000000D+00
     12   0.000000D+00  0.000000D+00  0.000000D+00  0.000000D+00  0.000000D+00
     13   0.000000D+00  0.000000D+00  0.000000D+00  0.000000D+00  0.000000D+00
     14   0.000000D+00  0.000000D+00  0.000000D+00  0.000000D+00  0.000000D+00
     15   0.000000D+00  0.000000D+00  0.000000D+00  0.000000D+00  0.000000D+00
     16   0.000000D+00  0.000000D+00 -0.149697D-01  0.000000D+00  0.000000D+00
                 6             7             8             9            10 
      1  -0.385221D+03 -0.385218D+03 -0.385204D+03 -0.385204D+03 -0.385196D+03
      2   0.000000D+00  0.000000D+00  0.000000D+00  0.000000D+00  0.000000D+00
      3   0.000000D+00  0.000000D+00  0.000000D+00  0.000000D+00  0.000000D+00
      4   0.000000D+00  0.000000D+00  0.000000D+00  0.000000D+00  0.000000D+00
      5   0.000000D+00  0.000000D+00  0.000000D+00  0.000000D+00  0.000000D+00
      6   0.000000D+00  0.000000D+00  0.000000D+00  0.000000D+00  0.000000D+00
      7   0.000000D+00  0.000000D+00  0.000000D+00  0.000000D+00  0.000000D+00
      8   0.000000D+00  0.000000D+00  0.000000D+00  0.112385D+01  0.000000D+00
      9   0.000000D+00  0.000000D+00  0.320682D-01  0.000000D+00  0.000000D+00
     10   0.000000D+00 -0.223628D+00  0.000000D+00  0.000000D+00  0.000000D+00
     11  -0.604709D-02  0.000000D+00  0.000000D+00  0.000000D+00  0.688310D-02
     12  -0.592110D-01  0.000000D+00  0.000000D+00  0.000000D+00 -0.910673D-01
     13   0.619047D-01  0.000000D+00  0.000000D+00  0.000000D+00 -0.626148D-01
     14   0.000000D+00  0.926490D-01  0.000000D+00  0.000000D+00  0.000000D+00
     15   0.000000D+00  0.000000D+00  0.341628D-01  0.000000D+00  0.000000D+00
     16   0.000000D+00  0.000000D+00  0.000000D+00  0.358807D+00  0.000000D+00
 Unable to Open any file for archive entry.
 1\1\GINC-KENNEDY30\FOpt\RPBE1PBE TDA-FC\6-31G(d,p)\C10H8\OSL\07-Jun-20
 22\0\\#p Opt TDA=(Singlet, nstates=10, root=1) PBE1PBE/6-31G(d,p) SCRF
 =(Solvent=Toluene) EmpiricalDispersion=(GD3BJ) Symmetry=(Tight) Popula
 tion=(Regular) Density=(Current) 6D 10F GFInput\\Naphthalene_Excited_S
 tates_TDA_Optimised_S_1__PBE1PBE__GD3BJ__Toluene_6_31G_d_p_\\0,1\C,0.,
 1.2400392377,1.4125329225\C,0.,2.4491684886,0.7114857569\C,0.,2.449168
 4886,-0.7114857569\C,0.,1.2400392377,-1.4125329225\C,0.,0.,-0.74087261
 83\C,0.,0.,0.7408726183\C,0.,-1.2400392377,1.4125329225\C,0.,-1.240039
 2377,-1.4125329225\C,0.,-2.4491684886,-0.7114857569\C,0.,-2.4491684886
 ,0.7114857569\H,0.,1.2436626143,2.4992412371\H,0.,3.3898839931,1.25134
 81756\H,0.,3.3898839931,-1.2513481756\H,0.,1.2436626143,-2.4992412371\
 H,0.,-1.2436626143,2.4992412371\H,0.,-1.2436626143,-2.4992412371\H,0.,
 -3.3898839931,-1.2513481756\H,0.,-3.3898839931,1.2513481756\\Version=E
 S64L-G16RevC.01\State=1-AG\HF=-385.4593762\RMSD=3.649e-09\RMSF=4.425e-
 05\Dipole=0.,0.,0.\Quadrupole=-6.5416483,3.3908542,3.1507941,0.,0.,0.\
 PG=D02H [C2"(C1.C1),SG(C8H8)]\\@
 The archive entry for this job was punched.


 ADAM SMITH SAID, "THE REAL PRICE OF ANYTHING IS THE TOIL AND TROUBLE
 OF ACQUIRING IT."  BUT IN ALL UNDERTAKINGS WITH NATURE WE SHOULD FIRST
 READ CAREFULLY THE SMALL PRINT IN THE CONTRACT. THIS MIGHT DISCLOSE
 THAT THE REAL PRICE IS TO BE PAID BY THOSE WHO INHERIT THE DEPLETION
 AND DESPOILATION THAT FOLLOWS.
                               -- E. R. HARRISON IN "COSMOLOGY" (1980)
 Job cpu time:       0 days  0 hours 26 minutes 53.3 seconds.
 Elapsed time:       0 days  0 hours  6 minutes 49.0 seconds.
 File lengths (MBytes):  RWF=    428 Int=      0 D2E=      0 Chk=     23 Scr=      2
 Normal termination of Gaussian 16 at Tue Jun  7 17:37:23 2022.
