Benzene_Optimisation_Frequencies_PBE1PBE__GD3BJ__Gas_Phase_6_31G_d_p_   
Freq      UPBE1PBE                                                    6-31G(d,p)          
Number of atoms                            I               12
Info1-9                                    I   N=           9
          22          22        1002           0           0         100
           6          18       -1302
Full Title                                 C   N=           6
Benzene_Optimisation_Frequencies_PBE1PBE__GD3BJ__Gas_Phase_6
_31G_d_p_   
Route                                      C   N=          10
#p Opt Freq PBE1PBE/6-31G(d,p) EmpiricalDispersion=(GD3BJ) S
ymmetry=(Tight) Population=(Regular) Density=(Current)      
Charge                                     I               -1
Multiplicity                               I                2
Number of electrons                        I               43
Number of alpha electrons                  I               22
Number of beta electrons                   I               21
Number of basis functions                  I              120
Number of independent functions            I              120
Number of point charges in /Mol/           I                0
Number of translation vectors              I                0
Atomic numbers                             I   N=          12
           6           6           6           6           6           6
           1           1           1           1           1           1
Nuclear charges                            R   N=          12
  6.00000000E+00  6.00000000E+00  6.00000000E+00  6.00000000E+00  6.00000000E+00
  6.00000000E+00  1.00000000E+00  1.00000000E+00  1.00000000E+00  1.00000000E+00
  1.00000000E+00  1.00000000E+00
Current cartesian coordinates              R   N=          36
 -2.71379850E+00  1.82201469E-01 -9.38574278E-06 -1.45111946E+00 -2.21659559E+00
 -6.32727242E-05  1.14028621E+00 -2.39282335E+00  7.90432010E-05  2.71379836E+00
 -1.82195005E-01 -3.09610893E-05  1.45112249E+00  2.21659371E+00 -6.49936795E-05
 -1.14028951E+00  2.39282008E+00  8.04739900E-05 -4.76269733E+00  3.19639389E-01
 -2.00038467E-04 -2.57420395E+00 -3.94974710E+00 -7.57402092E-05  2.01980240E+00
 -4.26112095E+00  2.63451870E-04  4.76269648E+00 -3.19661432E-01 -1.21778489E-04
  2.57419096E+00  3.94975492E+00 -7.45848799E-05 -2.01978609E+00  4.26112720E+00
  2.63266443E-04
Number of symbols in /Mol/                 I                0
Int Atom Types                             I   N=          12
           0           0           0           0           0           0
           0           0           0           0           0           0
Force Field                                I                0
Atom Types                                 C   N=          12
                                                            
                                                            
                        
MM charges                                 R   N=          12
  0.00000000E+00  0.00000000E+00  0.00000000E+00  0.00000000E+00  0.00000000E+00
  0.00000000E+00  0.00000000E+00  0.00000000E+00  0.00000000E+00  0.00000000E+00
  0.00000000E+00  0.00000000E+00
Integer atomic weights                     I   N=          12
          12          12          12          12          12          12
           1           1           1           1           1           1
Real atomic weights                        R   N=          12
  1.20000000E+01  1.20000000E+01  1.20000000E+01  1.20000000E+01  1.20000000E+01
  1.20000000E+01  1.00782504E+00  1.00782504E+00  1.00782504E+00  1.00782504E+00
  1.00782504E+00  1.00782504E+00
Atom fragment info                         I   N=          12
           0           0           0           0           0           0
           0           0           0           0           0           0
Atom residue num                           I   N=          12
           0           0           0           0           0           0
           0           0           0           0           0           0
Nuclear spins                              I   N=          12
           0           0           0           0           0           0
           1           1           1           1           1           1
Nuclear ZEff                               R   N=          12
 -3.60000000E+00 -3.60000000E+00 -3.60000000E+00 -3.60000000E+00 -3.60000000E+00
 -3.60000000E+00 -1.00000000E+00 -1.00000000E+00 -1.00000000E+00 -1.00000000E+00
 -1.00000000E+00 -1.00000000E+00
Nuclear ZNuc                               R   N=          12
  6.00000000E+00  6.00000000E+00  6.00000000E+00  6.00000000E+00  6.00000000E+00
  6.00000000E+00  1.00000000E+00  1.00000000E+00  1.00000000E+00  1.00000000E+00
  1.00000000E+00  1.00000000E+00
Nuclear QMom                               R   N=          12
  0.00000000E+00  0.00000000E+00  0.00000000E+00  0.00000000E+00  0.00000000E+00
  0.00000000E+00  0.00000000E+00  0.00000000E+00  0.00000000E+00  0.00000000E+00
  0.00000000E+00  0.00000000E+00
Nuclear GFac                               R   N=          12
  0.00000000E+00  0.00000000E+00  0.00000000E+00  0.00000000E+00  0.00000000E+00
  0.00000000E+00  2.79284600E+00  2.79284600E+00  2.79284600E+00  2.79284600E+00
  2.79284600E+00  2.79284600E+00
MicOpt                                     I   N=          12
          -1          -1          -1          -1          -1          -1
          -1          -1          -1          -1          -1          -1
Number of residues                         I                0
Number of secondary structures             I                0
Redundant internal dimensions              I   N=           4
          54          12          18          24
Redundant internal coordinate indices      I   N=         216
           1           2           0           0           1           6
           0           0           1           7           0           0
           2           3           0           0           2           8
           0           0           3           4           0           0
           3           9           0           0           4           5
           0           0           4          10           0           0
           5           6           0           0           5          11
           0           0           6          12           0           0
           2           1           6           0           2           1
           7           0           6           1           7           0
           1           2           3           0           1           2
           8           0           3           2           8           0
           2           3           4           0           2           3
           9           0           4           3           9           0
           3           4           5           0           3           4
          10           0           5           4          10           0
           4           5           6           0           4           5
          11           0           6           5          11           0
           1           6           5           0           1           6
          12           0           5           6          12           0
           6           1           2           3           6           1
           2           8           7           1           2           3
           7           1           2           8           2           1
           6           5           2           1           6          12
           7           1           6           5           7           1
           6          12           1           2           3           4
           1           2           3           9           8           2
           3           4           8           2           3           9
           2           3           4           5           2           3
           4          10           9           3           4           5
           9           3           4          10           3           4
           5           6           3           4           5          11
          10           4           5           6          10           4
           5          11           4           5           6           1
           4           5           6          12          11           5
           6           1          11           5           6          12
Redundant internal coordinates             R   N=          54
  2.71082749E+00  2.71344158E+00  2.05350326E+00  2.59739091E+00  2.06521983E+00
  2.71345134E+00  2.06496603E+00  2.71081863E+00  2.05350445E+00  2.59739714E+00
  2.06521925E+00  2.06496628E+00  2.03846556E+00  2.12230320E+00  2.12241655E+00
  2.12322477E+00  2.08209546E+00  2.07786507E+00  2.12149384E+00  2.07867811E+00
  2.08301336E+00  2.03846630E+00  2.12240154E+00  2.12231747E+00  2.12322447E+00
  2.08210413E+00  2.07785671E+00  2.12149567E+00  2.08302278E+00  2.07866686E+00
  4.95593087E-05  3.14156136E+00  3.14154804E+00 -1.25463815E-04  8.05126687E-05
 -3.14151526E+00 -3.14141796E+00  1.71567712E-04 -1.38347957E-04  3.14146382E+00
  3.14153497E+00 -4.81759381E-05  9.56019159E-05 -3.14147648E+00 -3.14150659E+00
  1.06639495E-04  3.44538306E-05  3.14155186E+00 -3.14157877E+00 -6.13666726E-05
 -1.22525428E-04  3.14147324E+00  3.14154520E+00 -4.43384596E-05
ZRed-IntVec                                I   N=          54
           0           0           0           0           0           0
           0           0           0           0           0           0
           0           0           0           0           0           0
           0           0           0           0           0           0
           0           0           0           0           0           0
           0           0           0           0           0           0
           0           0           0           0           0           0
           0           0           0           0           0           0
           0           0           0           0           0           0
ZRed-FPVec                                 R   N=          54
  0.00000000E+00  0.00000000E+00  0.00000000E+00  0.00000000E+00  0.00000000E+00
  0.00000000E+00  0.00000000E+00  0.00000000E+00  0.00000000E+00  0.00000000E+00
  0.00000000E+00  0.00000000E+00  0.00000000E+00  0.00000000E+00  0.00000000E+00
  0.00000000E+00  0.00000000E+00  0.00000000E+00  0.00000000E+00  0.00000000E+00
  0.00000000E+00  0.00000000E+00  0.00000000E+00  0.00000000E+00  0.00000000E+00
  0.00000000E+00  0.00000000E+00  0.00000000E+00  0.00000000E+00  0.00000000E+00
  0.00000000E+00  0.00000000E+00  0.00000000E+00  0.00000000E+00  0.00000000E+00
  0.00000000E+00  0.00000000E+00  0.00000000E+00  0.00000000E+00  0.00000000E+00
  0.00000000E+00  0.00000000E+00  0.00000000E+00  0.00000000E+00  0.00000000E+00
  0.00000000E+00  0.00000000E+00  0.00000000E+00  0.00000000E+00  0.00000000E+00
  0.00000000E+00  0.00000000E+00  0.00000000E+00  0.00000000E+00
ZRed-Constraint1                           R   N=          54
  2.71082749E+00  2.71344158E+00  2.05350326E+00  2.59739091E+00  2.06521983E+00
  2.71345134E+00  2.06496603E+00  2.71081863E+00  2.05350445E+00  2.59739714E+00
  2.06521925E+00  2.06496628E+00  2.03846556E+00  2.12230320E+00  2.12241655E+00
  2.12322477E+00  2.08209546E+00  2.07786507E+00  2.12149384E+00  2.07867811E+00
  2.08301336E+00  2.03846630E+00  2.12240154E+00  2.12231747E+00  2.12322447E+00
  2.08210413E+00  2.07785671E+00  2.12149567E+00  2.08302278E+00  2.07866686E+00
  4.95593087E-05  3.14156136E+00  3.14154804E+00 -1.25463815E-04  8.05126687E-05
 -3.14151526E+00 -3.14141796E+00  1.71567712E-04 -1.38347957E-04  3.14146382E+00
  3.14153497E+00 -4.81759381E-05  9.56019159E-05 -3.14147648E+00 -3.14150659E+00
  1.06639496E-04  3.44538306E-05  3.14155186E+00 -3.14157877E+00 -6.13666726E-05
 -1.22525428E-04  3.14147324E+00  3.14154520E+00 -4.43384596E-05
ZRed-Constraint2                           R   N=          54
  2.63610178E+00  2.63563321E+00  2.05351398E+00  2.63553557E+00  2.05338590E+00
  2.63604115E+00  2.05356911E+00  2.63591698E+00  2.05317322E+00  2.63561912E+00
  2.05379221E+00  2.05351929E+00  2.09435651E+00  2.09428401E+00  2.09454479E+00
  2.09427512E+00  2.09432119E+00  2.09458894E+00  2.09458597E+00  2.09436634E+00
  2.09423293E+00  2.09419502E+00  2.09447577E+00  2.09451451E+00  2.09440988E+00
  2.09430247E+00  2.09447286E+00  2.09454433E+00  2.09422920E+00  2.09441176E+00
  1.05526367E-03 -3.14090925E+00 -3.14052167E+00  6.99118723E-04  1.35439149E-03
 -3.14046649E+00 -3.14025398E+00  1.11044868E-03 -2.35447014E-03  3.13962713E+00
  3.13961010E+00 -1.59361068E-03  1.24412887E-03 -3.14036149E+00 -3.14073744E+00
  8.42246607E-04  1.16564010E-03 -3.14088916E+00 -3.14041404E+00  7.16462598E-04
 -2.46488509E-03  3.13935602E+00  3.13958996E+00 -1.77444214E-03
SymInf integers                            I   N=          26
           1           1           1           1           1           0
           0           0           0           0           0           0
           0           0           0           0           0           0
           0           0           0           0           0           0
           0           0
RotTr to input orientation                 R   N=          12
 -9.75218059E-01  2.21226641E-01 -2.91746499E-03  2.21188017E-01  9.75179807E-01
  1.00102743E-02  5.05959230E-03  9.11689195E-03 -9.99945640E-01  9.03473608E-03
 -1.03772782E-02  9.53383235E-04
Number of contracted shells                I               42
Number of primitive shells                 I               96
Pure/Cartesian d shells                    I                1
Pure/Cartesian f shells                    I                0
Highest angular momentum                   I                2
Largest degree of contraction              I                6
Shell types                                I   N=          42
           0          -1          -1           2           0          -1
          -1           2           0          -1          -1           2
           0          -1          -1           2           0          -1
          -1           2           0          -1          -1           2
           0           0           1           0           0           1
           0           0           1           0           0           1
           0           0           1           0           0           1
Number of primitives per shell             I   N=          42
           6           3           1           1           6           3
           1           1           6           3           1           1
           6           3           1           1           6           3
           1           1           6           3           1           1
           3           1           1           3           1           1
           3           1           1           3           1           1
           3           1           1           3           1           1
Shell to atom map                          I   N=          42
           1           1           1           1           2           2
           2           2           3           3           3           3
           4           4           4           4           5           5
           5           5           6           6           6           6
           7           7           7           8           8           8
           9           9           9          10          10          10
          11          11          11          12          12          12
Primitive exponents                        R   N=          96
  3.04752488E+03  4.57369518E+02  1.03948685E+02  2.92101553E+01  9.28666296E+00
  3.16392696E+00  7.86827235E+00  1.88128854E+00  5.44249258E-01  1.68714478E-01
  8.00000000E-01  3.04752488E+03  4.57369518E+02  1.03948685E+02  2.92101553E+01
  9.28666296E+00  3.16392696E+00  7.86827235E+00  1.88128854E+00  5.44249258E-01
  1.68714478E-01  8.00000000E-01  3.04752488E+03  4.57369518E+02  1.03948685E+02
  2.92101553E+01  9.28666296E+00  3.16392696E+00  7.86827235E+00  1.88128854E+00
  5.44249258E-01  1.68714478E-01  8.00000000E-01  3.04752488E+03  4.57369518E+02
  1.03948685E+02  2.92101553E+01  9.28666296E+00  3.16392696E+00  7.86827235E+00
  1.88128854E+00  5.44249258E-01  1.68714478E-01  8.00000000E-01  3.04752488E+03
  4.57369518E+02  1.03948685E+02  2.92101553E+01  9.28666296E+00  3.16392696E+00
  7.86827235E+00  1.88128854E+00  5.44249258E-01  1.68714478E-01  8.00000000E-01
  3.04752488E+03  4.57369518E+02  1.03948685E+02  2.92101553E+01  9.28666296E+00
  3.16392696E+00  7.86827235E+00  1.88128854E+00  5.44249258E-01  1.68714478E-01
  8.00000000E-01  1.87311370E+01  2.82539436E+00  6.40121692E-01  1.61277759E-01
  1.10000000E+00  1.87311370E+01  2.82539436E+00  6.40121692E-01  1.61277759E-01
  1.10000000E+00  1.87311370E+01  2.82539436E+00  6.40121692E-01  1.61277759E-01
  1.10000000E+00  1.87311370E+01  2.82539436E+00  6.40121692E-01  1.61277759E-01
  1.10000000E+00  1.87311370E+01  2.82539436E+00  6.40121692E-01  1.61277759E-01
  1.10000000E+00  1.87311370E+01  2.82539436E+00  6.40121692E-01  1.61277759E-01
  1.10000000E+00
Contraction coefficients                   R   N=          96
  1.83473713E-03  1.40373228E-02  6.88426223E-02  2.32184443E-01  4.67941348E-01
  3.62311985E-01 -1.19332420E-01 -1.60854152E-01  1.14345644E+00  1.00000000E+00
  1.00000000E+00  1.83473713E-03  1.40373228E-02  6.88426223E-02  2.32184443E-01
  4.67941348E-01  3.62311985E-01 -1.19332420E-01 -1.60854152E-01  1.14345644E+00
  1.00000000E+00  1.00000000E+00  1.83473713E-03  1.40373228E-02  6.88426223E-02
  2.32184443E-01  4.67941348E-01  3.62311985E-01 -1.19332420E-01 -1.60854152E-01
  1.14345644E+00  1.00000000E+00  1.00000000E+00  1.83473713E-03  1.40373228E-02
  6.88426223E-02  2.32184443E-01  4.67941348E-01  3.62311985E-01 -1.19332420E-01
 -1.60854152E-01  1.14345644E+00  1.00000000E+00  1.00000000E+00  1.83473713E-03
  1.40373228E-02  6.88426223E-02  2.32184443E-01  4.67941348E-01  3.62311985E-01
 -1.19332420E-01 -1.60854152E-01  1.14345644E+00  1.00000000E+00  1.00000000E+00
  1.83473713E-03  1.40373228E-02  6.88426223E-02  2.32184443E-01  4.67941348E-01
  3.62311985E-01 -1.19332420E-01 -1.60854152E-01  1.14345644E+00  1.00000000E+00
  1.00000000E+00  3.34946043E-02  2.34726953E-01  8.13757326E-01  1.00000000E+00
  1.00000000E+00  3.34946043E-02  2.34726953E-01  8.13757326E-01  1.00000000E+00
  1.00000000E+00  3.34946043E-02  2.34726953E-01  8.13757326E-01  1.00000000E+00
  1.00000000E+00  3.34946043E-02  2.34726953E-01  8.13757326E-01  1.00000000E+00
  1.00000000E+00  3.34946043E-02  2.34726953E-01  8.13757326E-01  1.00000000E+00
  1.00000000E+00  3.34946043E-02  2.34726953E-01  8.13757326E-01  1.00000000E+00
  1.00000000E+00
P(S=P) Contraction coefficients            R   N=          96
  0.00000000E+00  0.00000000E+00  0.00000000E+00  0.00000000E+00  0.00000000E+00
  0.00000000E+00  6.89990666E-02  3.16423961E-01  7.44308291E-01  1.00000000E+00
  0.00000000E+00  0.00000000E+00  0.00000000E+00  0.00000000E+00  0.00000000E+00
  0.00000000E+00  0.00000000E+00  6.89990666E-02  3.16423961E-01  7.44308291E-01
  1.00000000E+00  0.00000000E+00  0.00000000E+00  0.00000000E+00  0.00000000E+00
  0.00000000E+00  0.00000000E+00  0.00000000E+00  6.89990666E-02  3.16423961E-01
  7.44308291E-01  1.00000000E+00  0.00000000E+00  0.00000000E+00  0.00000000E+00
  0.00000000E+00  0.00000000E+00  0.00000000E+00  0.00000000E+00  6.89990666E-02
  3.16423961E-01  7.44308291E-01  1.00000000E+00  0.00000000E+00  0.00000000E+00
  0.00000000E+00  0.00000000E+00  0.00000000E+00  0.00000000E+00  0.00000000E+00
  6.89990666E-02  3.16423961E-01  7.44308291E-01  1.00000000E+00  0.00000000E+00
  0.00000000E+00  0.00000000E+00  0.00000000E+00  0.00000000E+00  0.00000000E+00
  0.00000000E+00  6.89990666E-02  3.16423961E-01  7.44308291E-01  1.00000000E+00
  0.00000000E+00  0.00000000E+00  0.00000000E+00  0.00000000E+00  0.00000000E+00
  0.00000000E+00  0.00000000E+00  0.00000000E+00  0.00000000E+00  0.00000000E+00
  0.00000000E+00  0.00000000E+00  0.00000000E+00  0.00000000E+00  0.00000000E+00
  0.00000000E+00  0.00000000E+00  0.00000000E+00  0.00000000E+00  0.00000000E+00
  0.00000000E+00  0.00000000E+00  0.00000000E+00  0.00000000E+00  0.00000000E+00
  0.00000000E+00  0.00000000E+00  0.00000000E+00  0.00000000E+00  0.00000000E+00
  0.00000000E+00
Coordinates of each shell                  R   N=         126
 -2.71379850E+00  1.82201469E-01 -9.38574278E-06 -2.71379850E+00  1.82201469E-01
 -9.38574278E-06 -2.71379850E+00  1.82201469E-01 -9.38574278E-06 -2.71379850E+00
  1.82201469E-01 -9.38574278E-06 -1.45111946E+00 -2.21659559E+00 -6.32727242E-05
 -1.45111946E+00 -2.21659559E+00 -6.32727242E-05 -1.45111946E+00 -2.21659559E+00
 -6.32727242E-05 -1.45111946E+00 -2.21659559E+00 -6.32727242E-05  1.14028621E+00
 -2.39282335E+00  7.90432010E-05  1.14028621E+00 -2.39282335E+00  7.90432010E-05
  1.14028621E+00 -2.39282335E+00  7.90432010E-05  1.14028621E+00 -2.39282335E+00
  7.90432010E-05  2.71379836E+00 -1.82195005E-01 -3.09610893E-05  2.71379836E+00
 -1.82195005E-01 -3.09610893E-05  2.71379836E+00 -1.82195005E-01 -3.09610893E-05
  2.71379836E+00 -1.82195005E-01 -3.09610893E-05  1.45112249E+00  2.21659371E+00
 -6.49936795E-05  1.45112249E+00  2.21659371E+00 -6.49936795E-05  1.45112249E+00
  2.21659371E+00 -6.49936795E-05  1.45112249E+00  2.21659371E+00 -6.49936795E-05
 -1.14028951E+00  2.39282008E+00  8.04739900E-05 -1.14028951E+00  2.39282008E+00
  8.04739900E-05 -1.14028951E+00  2.39282008E+00  8.04739900E-05 -1.14028951E+00
  2.39282008E+00  8.04739900E-05 -4.76269733E+00  3.19639389E-01 -2.00038467E-04
 -4.76269733E+00  3.19639389E-01 -2.00038467E-04 -4.76269733E+00  3.19639389E-01
 -2.00038467E-04 -2.57420395E+00 -3.94974710E+00 -7.57402092E-05 -2.57420395E+00
 -3.94974710E+00 -7.57402092E-05 -2.57420395E+00 -3.94974710E+00 -7.57402092E-05
  2.01980240E+00 -4.26112095E+00  2.63451870E-04  2.01980240E+00 -4.26112095E+00
  2.63451870E-04  2.01980240E+00 -4.26112095E+00  2.63451870E-04  4.76269648E+00
 -3.19661432E-01 -1.21778489E-04  4.76269648E+00 -3.19661432E-01 -1.21778489E-04
  4.76269648E+00 -3.19661432E-01 -1.21778489E-04  2.57419096E+00  3.94975492E+00
 -7.45848799E-05  2.57419096E+00  3.94975492E+00 -7.45848799E-05  2.57419096E+00
  3.94975492E+00 -7.45848799E-05 -2.01978609E+00  4.26112720E+00  2.63266443E-04
 -2.01978609E+00  4.26112720E+00  2.63266443E-04 -2.01978609E+00  4.26112720E+00
  2.63266443E-04
Num ILSW                                   I              100
ILSW                                       I   N=         100
           1           1           0           0           2           0
           0           0           0           0        1009          -1
           5           0           0           0           2           0
           0           0           0           0           1           0
           1           0           0           0           0           0
           0           0      100000           0          -1           0
           0           0           0           0           0           0
           0           0           0           1           0           0
           0 -2000000000           1           0           0           0
           0           0         141          52           0           0
           0           0          13           0           0           0
           0           0           0          12           0           1
           0           0           0           0           0           0
           0           0           0           0           0           0
           0           0           0           0           0           0
           0           0           0           0           0           0
           0           0           0           0
Num RLSW                                   I               52
RLSW                                       R   N=          52
  7.50000000E-01  7.50000000E-01  1.00000000E+00  1.00000000E+00  2.50000000E-01
  0.00000000E+00  0.00000000E+00  1.00000000E+00  0.00000000E+00  0.00000000E+00
  0.00000000E+00  0.00000000E+00  1.00000000E+00  0.00000000E+00  0.00000000E+00
  0.00000000E+00  0.00000000E+00  1.00000000E+00  0.00000000E+00  0.00000000E+00
  0.00000000E+00  0.00000000E+00  1.00000000E+00  0.00000000E+00  0.00000000E+00
  0.00000000E+00  0.00000000E+00  1.00000000E+00  0.00000000E+00  0.00000000E+00
  0.00000000E+00  0.00000000E+00  1.00000000E+00  0.00000000E+00  0.00000000E+00
  0.00000000E+00  0.00000000E+00  0.00000000E+00  1.00000000E+00  1.00000000E+00
  0.00000000E+00  1.00000000E+00  0.00000000E+00  0.00000000E+00  0.00000000E+00
  0.00000000E+00  0.00000000E+00  0.00000000E+00  0.00000000E+00  0.00000000E+00
  0.00000000E+00  0.00000000E+00
MxBond                                     I                3
NBond                                      I   N=          12
           3           3           3           3           3           3
           1           1           1           1           1           1
IBond                                      I   N=          36
           2           6           7           1           3           8
           2           4           9           3           5          10
           4           6          11           1           5          12
           1           0           0           2           0           0
           3           0           0           4           0           0
           5           0           0           6           0           0
RBond                                      R   N=          36
  1.50000000E+00  1.50000000E+00  1.00000000E+00  1.50000000E+00  1.50000000E+00
  1.00000000E+00  1.50000000E+00  1.50000000E+00  1.00000000E+00  1.50000000E+00
  1.50000000E+00  1.00000000E+00  1.50000000E+00  1.50000000E+00  1.00000000E+00
  1.50000000E+00  1.50000000E+00  1.00000000E+00  1.00000000E+00  0.00000000E+00
  0.00000000E+00  1.00000000E+00  0.00000000E+00  0.00000000E+00  1.00000000E+00
  0.00000000E+00  0.00000000E+00  1.00000000E+00  0.00000000E+00  0.00000000E+00
  1.00000000E+00  0.00000000E+00  0.00000000E+00  1.00000000E+00  0.00000000E+00
  0.00000000E+00
Virial Ratio                               R      2.008713206905261E+00
SCF Energy                                 R     -2.319080062112885E+02
Total Energy                               R     -2.319080062112885E+02
S**2                                       R      7.614502039247597E-01
S**2 after annihilation                    R      7.500428154475213E-01
RMS Force                                  R      5.834226451896030E-05
RMS Density                                R      7.869421221352385E-10
NImag                                      I                2
Job Status                                 I                1
Nuclear derivative order                   I                2
Thermal Energy                             R     -2.318124197447349E+02
Thermal Enthalpy                           R     -2.318114755599212E+02
Thermal Free Energy                        R     -2.318466989123049E+02
External E-field                           R   N=          35
  0.00000000E+00  0.00000000E+00  0.00000000E+00  0.00000000E+00  0.00000000E+00
  0.00000000E+00  0.00000000E+00  0.00000000E+00  0.00000000E+00  0.00000000E+00
  0.00000000E+00  0.00000000E+00  0.00000000E+00  0.00000000E+00  0.00000000E+00
  0.00000000E+00  0.00000000E+00  0.00000000E+00  0.00000000E+00  0.00000000E+00
  0.00000000E+00  0.00000000E+00  0.00000000E+00  0.00000000E+00  0.00000000E+00
  0.00000000E+00  0.00000000E+00  0.00000000E+00  0.00000000E+00  0.00000000E+00
  0.00000000E+00  0.00000000E+00  0.00000000E+00  0.00000000E+00  0.00000000E+00
IOpCl                                      I                1
IROHF                                      I                0
Alpha Orbital Energies                     R   N=         120
 -1.00139871E+01 -1.00139855E+01 -1.00131463E+01 -1.00131353E+01 -9.99180835E+00
 -9.99180615E+00 -6.35370391E-01 -5.42453049E-01 -5.25409514E-01 -4.01328252E-01
 -3.85379345E-01 -3.10587479E-01 -2.63752501E-01 -2.21358892E-01 -2.08654613E-01
 -2.01988912E-01 -1.53184882E-01 -1.39048338E-01 -1.19612136E-01 -4.99829609E-02
 -4.18045312E-02  1.40843860E-01  2.30351817E-01  2.85724902E-01  3.33051405E-01
  3.44787133E-01  3.63575077E-01  3.70142747E-01  3.73393484E-01  3.73686721E-01
  5.00952420E-01  5.14233450E-01  5.15364459E-01  5.36674730E-01  6.92322620E-01
  7.50981839E-01  7.58451714E-01  7.66491652E-01  7.67656957E-01  8.13643267E-01
  8.17391626E-01  8.25433057E-01  8.34154117E-01  8.43482036E-01  8.46581923E-01
  8.60606118E-01  8.83917311E-01  8.96531569E-01  9.61297863E-01  1.04103565E+00
  1.04165421E+00  1.04721488E+00  1.05191902E+00  1.07728067E+00  1.14181281E+00
  1.14491212E+00  1.17417984E+00  1.17661413E+00  1.28227107E+00  1.30501299E+00
  1.34268916E+00  1.35576564E+00  1.40974703E+00  1.49617664E+00  1.53159443E+00
  1.63154179E+00  1.63253010E+00  1.63400535E+00  1.64562737E+00  1.66376558E+00
  1.66445614E+00  1.97186623E+00  1.97797416E+00  2.03791586E+00  2.08425696E+00
  2.14339834E+00  2.15257969E+00  2.16913198E+00  2.18757212E+00  2.18788045E+00
  2.20367486E+00  2.23347950E+00  2.25763952E+00  2.31389924E+00  2.47735127E+00
  2.54157045E+00  2.55574384E+00  2.57434426E+00  2.58490188E+00  2.61347975E+00
  2.61988126E+00  2.65638994E+00  2.66898308E+00  2.67566705E+00  2.70669574E+00
  2.73963383E+00  2.74388798E+00  2.81194140E+00  2.81328153E+00  2.81728823E+00
  2.86385112E+00  2.97597147E+00  3.01303129E+00  3.01518149E+00  3.23488407E+00
  3.27373376E+00  3.39617740E+00  3.45971062E+00  3.46833787E+00  3.47973305E+00
  3.58974337E+00  3.72958560E+00  3.73021714E+00  4.14392644E+00  4.37731424E+00
  4.42422687E+00  4.42679628E+00  4.69095460E+00  4.69342834E+00  5.05778899E+00