 Entering Gaussian System, Link 0=g16
 Input=/gpfs1/home/osl/test/Pyridine/Gaussian 16 Excited States TDA Optimised S(1) PBE1PBE (GD3BJ) Toluene 6-31G(d,p)/Input/Pyridine.com
 Output=/gpfs1/home/osl/test/Pyridine/Gaussian 16 Excited States TDA Optimised S(1) PBE1PBE (GD3BJ) Toluene 6-31G(d,p)/Output/Pyridine.log
 Initial command:
 /gpfs1/apps/software/Gaussian16/AVX/g16/l1.exe "/scratch/tmp/osl/c4ffe862cb9947b88ebc4aea3969a151/Gau-25995.inp" -scrdir="/scratch/tmp/osl/c4ffe862cb9947b88ebc4aea3969a151/"
 Entering Link 1 = /gpfs1/apps/software/Gaussian16/AVX/g16/l1.exe PID=     25997.
  
 Copyright (c) 1988-2019, Gaussian, Inc.  All Rights Reserved.
  
 This is part of the Gaussian(R) 16 program.  It is based on
 the Gaussian(R) 09 system (copyright 2009, Gaussian, Inc.),
 the Gaussian(R) 03 system (copyright 2003, Gaussian, Inc.),
 the Gaussian(R) 98 system (copyright 1998, Gaussian, Inc.),
 the Gaussian(R) 94 system (copyright 1995, Gaussian, Inc.),
 the Gaussian 92(TM) system (copyright 1992, Gaussian, Inc.),
 the Gaussian 90(TM) system (copyright 1990, Gaussian, Inc.),
 the Gaussian 88(TM) system (copyright 1988, Gaussian, Inc.),
 the Gaussian 86(TM) system (copyright 1986, Carnegie Mellon
 University), and the Gaussian 82(TM) system (copyright 1983,
 Carnegie Mellon University). Gaussian is a federally registered
 trademark of Gaussian, Inc.
  
 This software contains proprietary and confidential information,
 including trade secrets, belonging to Gaussian, Inc.
  
 This software is provided under written license and may be
 used, copied, transmitted, or stored only in accord with that
 written license.
  
 The following legend is applicable only to US Government
 contracts under FAR:
  
                    RESTRICTED RIGHTS LEGEND
  
 Use, reproduction and disclosure by the US Government is
 subject to restrictions as set forth in subparagraphs (a)
 and (c) of the Commercial Computer Software - Restricted
 Rights clause in FAR 52.227-19.
  
 Gaussian, Inc.
 340 Quinnipiac St., Bldg. 40, Wallingford CT 06492
  
  
 ---------------------------------------------------------------
 Warning -- This program may not be used in any manner that
 competes with the business of Gaussian, Inc. or will provide
 assistance to any competitor of Gaussian, Inc.  The licensee
 of this program is prohibited from giving any competitor of
 Gaussian, Inc. access to this program.  By using this program,
 the user acknowledges that Gaussian, Inc. is engaged in the
 business of creating and licensing software in the field of
 computational chemistry and represents and warrants to the
 licensee that it is not a competitor of Gaussian, Inc. and that
 it will not use this program in any manner prohibited above.
 ---------------------------------------------------------------
  

 Cite this work as:
 Gaussian 16, Revision C.01,
 M. J. Frisch, G. W. Trucks, H. B. Schlegel, G. E. Scuseria, 
 M. A. Robb, J. R. Cheeseman, G. Scalmani, V. Barone, 
 G. A. Petersson, H. Nakatsuji, X. Li, M. Caricato, A. V. Marenich, 
 J. Bloino, B. G. Janesko, R. Gomperts, B. Mennucci, H. P. Hratchian, 
 J. V. Ortiz, A. F. Izmaylov, J. L. Sonnenberg, D. Williams-Young, 
 F. Ding, F. Lipparini, F. Egidi, J. Goings, B. Peng, A. Petrone, 
 T. Henderson, D. Ranasinghe, V. G. Zakrzewski, J. Gao, N. Rega, 
 G. Zheng, W. Liang, M. Hada, M. Ehara, K. Toyota, R. Fukuda, 
 J. Hasegawa, M. Ishida, T. Nakajima, Y. Honda, O. Kitao, H. Nakai, 
 T. Vreven, K. Throssell, J. A. Montgomery, Jr., J. E. Peralta, 
 F. Ogliaro, M. J. Bearpark, J. J. Heyd, E. N. Brothers, K. N. Kudin, 
 V. N. Staroverov, T. A. Keith, R. Kobayashi, J. Normand, 
 K. Raghavachari, A. P. Rendell, J. C. Burant, S. S. Iyengar, 
 J. Tomasi, M. Cossi, J. M. Millam, M. Klene, C. Adamo, R. Cammi, 
 J. W. Ochterski, R. L. Martin, K. Morokuma, O. Farkas, 
 J. B. Foresman, and D. J. Fox, Gaussian, Inc., Wallingford CT, 2019.
 
 ******************************************
 Gaussian 16:  ES64L-G16RevC.01  3-Jul-2019
                16-Jun-2022 
 ******************************************
 %Chk="Pyridine.chk"
 %Rwf="Pyridine.rwf"
 %NProcShared=4
 Will use up to    4 processors via shared memory.
 %Mem=10GB
 ----------------------------------------------------------------------
 #p Opt TDA=(Singlet, nstates=10, root=1) PBE1PBE/6-31G(d,p) SCRF=(Solv
 ent=Toluene) EmpiricalDispersion=(GD3BJ) Symmetry=(Tight) Population=(
 Regular) Density=(Current) 6D 10F GFInput
 ----------------------------------------------------------------------
 1/18=20,19=15,26=3,38=1/1,3;
 2/9=110,12=2,40=1/2;
 3/5=1,6=6,7=101,8=22,11=9,24=10,25=1,30=1,70=2201,71=1,72=13,74=-13,124=41/1,2,3,8;
 4//1;
 5/5=2,38=5,53=13/2;
 8/6=1,10=2,107=1,108=10/1;
 9/8=1,15=2,41=10,42=1,48=1/14;
 10/5=4,28=1/2;
 6/22=-1/1;
 7/12=6,13=5,14=1/1,2,3,16;
 1/18=20,19=15,26=3/3(2);
 2/9=110/2;
 99//99;
 2/9=110/2;
 3/5=1,6=6,7=101,8=22,11=9,25=1,30=1,70=2205,71=1,72=13,74=-13,124=41/1,2,3,8;
 4/5=5,16=3,69=1/1;
 5/5=2,38=5,53=13/2;
 8/6=1,10=2,107=1,108=10/1;
 9/8=1,15=2,41=10,42=1,48=1,49=4/14;
 10/5=4,28=1/2;
 7/12=6,13=5,14=1/1,2,3,16;
 1/18=20,19=15,26=3/3(-8);
 2/9=110/2;
 6/22=-1/1;
 99/9=10/99;
 Leave Link    1 at Thu Jun 16 00:04:03 2022, MaxMem=  1342177280 cpu:               0.4 elap:               0.1
 (Enter /gpfs1/apps/software/Gaussian16/AVX/g16/l101.exe)
 ----------------------------------------------------------------------
 Pyridine_Excited_States_TDA_Optimised_S_1__PBE1PBE__GD3BJ__Toluene_6_3
 1G_d_p_
 ----------------------------------------------------------------------
 Symbolic Z-matrix:
 Charge =  0 Multiplicity = 1
 C                     1.13865  -0.71996  -0.00002 
 C                     1.1954    0.67092   0.00002 
 C                     0.00004   1.38179   0.00002 
 C                    -1.19537   0.67098   0.00002 
 C                    -1.1387   -0.7199    0.00003 
 N                    -0.00003  -1.41721  -0.00006 
 H                     2.05706  -1.30465  -0.00004 
 H                     2.15406   1.1794    0.00004 
 H                     0.00006   2.46782   0.00005 
 H                    -2.15399   1.17953   0.00002 
 H                    -2.05712  -1.30454  -0.00004 
 
 ITRead=  0  0  0  0  0  0  0  0  0  0  0
 MicOpt= -1 -1 -1 -1 -1 -1 -1 -1 -1 -1 -1
 NAtoms=     11 NQM=       11 NQMF=       0 NMMI=      0 NMMIF=      0
                NMic=       0 NMicF=      0.
                    Isotopes and Nuclear Properties:
 (Nuclear quadrupole moments (NQMom) in fm**2, nuclear magnetic moments (NMagM)
  in nuclear magnetons)

  Atom         1           2           3           4           5           6           7           8           9          10
 IAtWgt=          12          12          12          12          12          14           1           1           1           1
 AtmWgt=  12.0000000  12.0000000  12.0000000  12.0000000  12.0000000  14.0030740   1.0078250   1.0078250   1.0078250   1.0078250
 NucSpn=           0           0           0           0           0           2           1           1           1           1
 AtZEff=  -0.0000000  -0.0000000  -0.0000000  -0.0000000  -0.0000000  -0.0000000  -0.0000000  -0.0000000  -0.0000000  -0.0000000
 NQMom=    0.0000000   0.0000000   0.0000000   0.0000000   0.0000000   2.0440000   0.0000000   0.0000000   0.0000000   0.0000000
 NMagM=    0.0000000   0.0000000   0.0000000   0.0000000   0.0000000   0.4037610   2.7928460   2.7928460   2.7928460   2.7928460
 AtZNuc=   6.0000000   6.0000000   6.0000000   6.0000000   6.0000000   7.0000000   1.0000000   1.0000000   1.0000000   1.0000000

  Atom        11
 IAtWgt=           1
 AtmWgt=   1.0078250
 NucSpn=           1
 AtZEff=  -0.0000000
 NQMom=    0.0000000
 NMagM=    2.7928460
 AtZNuc=   1.0000000
 Leave Link  101 at Thu Jun 16 00:04:07 2022, MaxMem=  1342177280 cpu:               2.0 elap:               0.5
 (Enter /gpfs1/apps/software/Gaussian16/AVX/g16/l103.exe)

 GradGradGradGradGradGradGradGradGradGradGradGradGradGradGradGradGradGrad
 Berny optimization.
 Initialization pass.
                           ----------------------------
                           !    Initial Parameters    !
                           ! (Angstroms and Degrees)  !
 --------------------------                            --------------------------
 ! Name  Definition              Value          Derivative Info.                !
 --------------------------------------------------------------------------------
 ! R1    R(1,2)                  1.392          estimate D2E/DX2                !
 ! R2    R(1,6)                  1.3352         estimate D2E/DX2                !
 ! R3    R(1,7)                  1.0887         estimate D2E/DX2                !
 ! R4    R(2,3)                  1.3908         estimate D2E/DX2                !
 ! R5    R(2,8)                  1.0852         estimate D2E/DX2                !
 ! R6    R(3,4)                  1.3908         estimate D2E/DX2                !
 ! R7    R(3,9)                  1.086          estimate D2E/DX2                !
 ! R8    R(4,5)                  1.392          estimate D2E/DX2                !
 ! R9    R(4,10)                 1.0852         estimate D2E/DX2                !
 ! R10   R(5,6)                  1.3352         estimate D2E/DX2                !
 ! R11   R(5,11)                 1.0887         estimate D2E/DX2                !
 ! A1    A(2,1,6)              123.8169         estimate D2E/DX2                !
 ! A2    A(2,1,7)              120.1457         estimate D2E/DX2                !
 ! A3    A(6,1,7)              116.0374         estimate D2E/DX2                !
 ! A4    A(1,2,3)              118.4031         estimate D2E/DX2                !
 ! A5    A(1,2,8)              120.2783         estimate D2E/DX2                !
 ! A6    A(3,2,8)              121.3186         estimate D2E/DX2                !
 ! A7    A(2,3,4)              118.524          estimate D2E/DX2                !
 ! A8    A(2,3,9)              120.7385         estimate D2E/DX2                !
 ! A9    A(4,3,9)              120.7375         estimate D2E/DX2                !
 ! A10   A(3,4,5)              118.4032         estimate D2E/DX2                !
 ! A11   A(3,4,10)             121.3176         estimate D2E/DX2                !
 ! A12   A(5,4,10)             120.2792         estimate D2E/DX2                !
 ! A13   A(4,5,6)              123.816          estimate D2E/DX2                !
 ! A14   A(4,5,11)             120.1465         estimate D2E/DX2                !
 ! A15   A(6,5,11)             116.0374         estimate D2E/DX2                !
 ! A16   A(1,6,5)              117.0367         estimate D2E/DX2                !
 ! D1    D(6,1,2,3)              0.0001         estimate D2E/DX2                !
 ! D2    D(6,1,2,8)           -179.9993         estimate D2E/DX2                !
 ! D3    D(7,1,2,3)            179.9988         estimate D2E/DX2                !
 ! D4    D(7,1,2,8)             -0.0005         estimate D2E/DX2                !
 ! D5    D(2,1,6,5)             -0.0044         estimate D2E/DX2                !
 ! D6    D(7,1,6,5)            179.9968         estimate D2E/DX2                !
 ! D7    D(1,2,3,4)              0.0019         estimate D2E/DX2                !
 ! D8    D(1,2,3,9)           -180.0            estimate D2E/DX2                !
 ! D9    D(8,2,3,4)           -179.9988         estimate D2E/DX2                !
 ! D10   D(8,2,3,9)             -0.0006         estimate D2E/DX2                !
 ! D11   D(2,3,4,5)              0.0005         estimate D2E/DX2                !
 ! D12   D(2,3,4,10)           180.0            estimate D2E/DX2                !
 ! D13   D(9,3,4,5)           -179.9977         estimate D2E/DX2                !
 ! D14   D(9,3,4,10)             0.0018         estimate D2E/DX2                !
 ! D15   D(3,4,5,6)             -0.0051         estimate D2E/DX2                !
 ! D16   D(3,4,5,11)          -179.9957         estimate D2E/DX2                !
 ! D17   D(10,4,5,6)           179.9953         estimate D2E/DX2                !
 ! D18   D(10,4,5,11)            0.0047         estimate D2E/DX2                !
 ! D19   D(4,5,6,1)              0.007          estimate D2E/DX2                !
 ! D20   D(11,5,6,1)           179.9979         estimate D2E/DX2                !
 --------------------------------------------------------------------------------
 Trust Radius=3.00D-01 FncErr=1.00D-07 GrdErr=1.00D-06 EigMax=2.50D+02 EigMin=1.00D-04
 Number of steps in this run=     57 maximum allowed number of steps=    100.
 GradGradGradGradGradGradGradGradGradGradGradGradGradGradGradGradGradGrad

 Leave Link  103 at Thu Jun 16 00:04:08 2022, MaxMem=  1342177280 cpu:               0.0 elap:               0.0
 (Enter /gpfs1/apps/software/Gaussian16/AVX/g16/l202.exe)
                          Input orientation:                          
 ---------------------------------------------------------------------
 Center     Atomic      Atomic             Coordinates (Angstroms)
 Number     Number       Type             X           Y           Z
 ---------------------------------------------------------------------
      1          6           0        1.138650   -0.719960   -0.000020
      2          6           0        1.195400    0.670920    0.000020
      3          6           0        0.000040    1.381790    0.000020
      4          6           0       -1.195370    0.670980    0.000020
      5          6           0       -1.138700   -0.719900    0.000030
      6          7           0       -0.000030   -1.417210   -0.000060
      7          1           0        2.057060   -1.304650   -0.000040
      8          1           0        2.154060    1.179400    0.000040
      9          1           0        0.000060    2.467820    0.000050
     10          1           0       -2.153990    1.179530    0.000020
     11          1           0       -2.057120   -1.304540   -0.000040
 ---------------------------------------------------------------------
                    Distance matrix (angstroms):
                    1          2          3          4          5
     1  C    0.000000
     2  C    1.392037   0.000000
     3  C    2.390353   1.390763   0.000000
     4  C    2.717051   2.390770   1.390775   0.000000
     5  C    2.277350   2.717058   2.390362   1.392034   0.000000
     6  N    1.335197   2.406105   2.799000   2.406112   1.335219
     7  H    1.088733   2.155304   3.383532   3.805445   3.248817
     8  H    2.153747   1.085164   2.163507   3.387798   3.801264
     9  H    3.385015   2.158168   1.086030   2.158167   3.385016
    10  H    3.801255   3.387787   2.163505   1.085161   2.153752
    11  H    3.248797   3.805434   3.383530   2.155294   1.088714
                    6          7          8          9         10
     6  N    0.000000
     7  H    2.060167   0.000000
     8  H    3.373794   2.485943   0.000000
     9  H    3.885030   4.296834   2.509929   0.000000
    10  H    3.373811   4.889181   4.308050   2.509905   0.000000
    11  H    2.060173   4.114180   4.889171   4.296823   2.485958
                   11
    11  H    0.000000
 Stoichiometry    C5H5N
 Framework group  C1[X(C5H5N)]
 Deg. of freedom    27
 Full point group                 C1      NOp   1
 Largest Abelian subgroup         C1      NOp   1
 Largest concise Abelian subgroup C1      NOp   1
                         Standard orientation:                         
 ---------------------------------------------------------------------
 Center     Atomic      Atomic             Coordinates (Angstroms)
 Number     Number       Type             X           Y           Z
 ---------------------------------------------------------------------
      1          6           0        1.138700   -0.719883   -0.000021
      2          6           0        1.195354    0.671001    0.000019
      3          6           0       -0.000055    1.381788    0.000019
      4          6           0       -1.195416    0.670896    0.000019
      5          6           0       -1.138650   -0.719980    0.000029
      6          7           0        0.000069   -1.417212   -0.000061
      7          1           0        2.057151   -1.304509   -0.000041
      8          1           0        2.153979    1.179547    0.000039
      9          1           0       -0.000110    2.467818    0.000049
     10          1           0       -2.154071    1.179379    0.000019
     11          1           0       -2.057029   -1.304684   -0.000041
 ---------------------------------------------------------------------
 Rotational constants (GHZ):           6.0673864           5.8363675           2.9748176
 Leave Link  202 at Thu Jun 16 00:04:10 2022, MaxMem=  1342177280 cpu:               0.3 elap:               0.1
 (Enter /gpfs1/apps/software/Gaussian16/AVX/g16/l301.exe)
 Standard basis: 6-31G(d,p) (6D, 10F)
 Ernie: Thresh=  0.10000D-02 Tol=  0.10000D-05 Strict=F.
 AO basis set in the form of general basis input (Overlap normalization):
      1 0
 S   6 1.00       0.000000000000
      0.3047524880D+04  0.1834737132D-02
      0.4573695180D+03  0.1403732281D-01
      0.1039486850D+03  0.6884262226D-01
      0.2921015530D+02  0.2321844432D+00
      0.9286662960D+01  0.4679413484D+00
      0.3163926960D+01  0.3623119853D+00
 SP   3 1.00       0.000000000000
      0.7868272350D+01 -0.1193324198D+00  0.6899906659D-01
      0.1881288540D+01 -0.1608541517D+00  0.3164239610D+00
      0.5442492580D+00  0.1143456438D+01  0.7443082909D+00
 SP   1 1.00       0.000000000000
      0.1687144782D+00  0.1000000000D+01  0.1000000000D+01
 D   1 1.00       0.000000000000
      0.8000000000D+00  0.1000000000D+01
 ****
      2 0
 S   6 1.00       0.000000000000
      0.3047524880D+04  0.1834737132D-02
      0.4573695180D+03  0.1403732281D-01
      0.1039486850D+03  0.6884262226D-01
      0.2921015530D+02  0.2321844432D+00
      0.9286662960D+01  0.4679413484D+00
      0.3163926960D+01  0.3623119853D+00
 SP   3 1.00       0.000000000000
      0.7868272350D+01 -0.1193324198D+00  0.6899906659D-01
      0.1881288540D+01 -0.1608541517D+00  0.3164239610D+00
      0.5442492580D+00  0.1143456438D+01  0.7443082909D+00
 SP   1 1.00       0.000000000000
      0.1687144782D+00  0.1000000000D+01  0.1000000000D+01
 D   1 1.00       0.000000000000
      0.8000000000D+00  0.1000000000D+01
 ****
      3 0
 S   6 1.00       0.000000000000
      0.3047524880D+04  0.1834737132D-02
      0.4573695180D+03  0.1403732281D-01
      0.1039486850D+03  0.6884262226D-01
      0.2921015530D+02  0.2321844432D+00
      0.9286662960D+01  0.4679413484D+00
      0.3163926960D+01  0.3623119853D+00
 SP   3 1.00       0.000000000000
      0.7868272350D+01 -0.1193324198D+00  0.6899906659D-01
      0.1881288540D+01 -0.1608541517D+00  0.3164239610D+00
      0.5442492580D+00  0.1143456438D+01  0.7443082909D+00
 SP   1 1.00       0.000000000000
      0.1687144782D+00  0.1000000000D+01  0.1000000000D+01
 D   1 1.00       0.000000000000
      0.8000000000D+00  0.1000000000D+01
 ****
      4 0
 S   6 1.00       0.000000000000
      0.3047524880D+04  0.1834737132D-02
      0.4573695180D+03  0.1403732281D-01
      0.1039486850D+03  0.6884262226D-01
      0.2921015530D+02  0.2321844432D+00
      0.9286662960D+01  0.4679413484D+00
      0.3163926960D+01  0.3623119853D+00
 SP   3 1.00       0.000000000000
      0.7868272350D+01 -0.1193324198D+00  0.6899906659D-01
      0.1881288540D+01 -0.1608541517D+00  0.3164239610D+00
      0.5442492580D+00  0.1143456438D+01  0.7443082909D+00
 SP   1 1.00       0.000000000000
      0.1687144782D+00  0.1000000000D+01  0.1000000000D+01
 D   1 1.00       0.000000000000
      0.8000000000D+00  0.1000000000D+01
 ****
      5 0
 S   6 1.00       0.000000000000
      0.3047524880D+04  0.1834737132D-02
      0.4573695180D+03  0.1403732281D-01
      0.1039486850D+03  0.6884262226D-01
      0.2921015530D+02  0.2321844432D+00
      0.9286662960D+01  0.4679413484D+00
      0.3163926960D+01  0.3623119853D+00
 SP   3 1.00       0.000000000000
      0.7868272350D+01 -0.1193324198D+00  0.6899906659D-01
      0.1881288540D+01 -0.1608541517D+00  0.3164239610D+00
      0.5442492580D+00  0.1143456438D+01  0.7443082909D+00
 SP   1 1.00       0.000000000000
      0.1687144782D+00  0.1000000000D+01  0.1000000000D+01
 D   1 1.00       0.000000000000
      0.8000000000D+00  0.1000000000D+01
 ****
      6 0
 S   6 1.00       0.000000000000
      0.4173511460D+04  0.1834772160D-02
      0.6274579110D+03  0.1399462700D-01
      0.1429020930D+03  0.6858655181D-01
      0.4023432930D+02  0.2322408730D+00
      0.1282021290D+02  0.4690699481D+00
      0.4390437010D+01  0.3604551991D+00
 SP   3 1.00       0.000000000000
      0.1162636186D+02 -0.1149611817D+00  0.6757974388D-01
      0.2716279807D+01 -0.1691174786D+00  0.3239072959D+00
      0.7722183966D+00  0.1145851947D+01  0.7408951398D+00
 SP   1 1.00       0.000000000000
      0.2120314975D+00  0.1000000000D+01  0.1000000000D+01
 D   1 1.00       0.000000000000
      0.8000000000D+00  0.1000000000D+01
 ****
      7 0
 S   3 1.00       0.000000000000
      0.1873113696D+02  0.3349460434D-01
      0.2825394365D+01  0.2347269535D+00
      0.6401216923D+00  0.8137573261D+00
 S   1 1.00       0.000000000000
      0.1612777588D+00  0.1000000000D+01
 P   1 1.00       0.000000000000
      0.1100000000D+01  0.1000000000D+01
 ****
      8 0
 S   3 1.00       0.000000000000
      0.1873113696D+02  0.3349460434D-01
      0.2825394365D+01  0.2347269535D+00
      0.6401216923D+00  0.8137573261D+00
 S   1 1.00       0.000000000000
      0.1612777588D+00  0.1000000000D+01
 P   1 1.00       0.000000000000
      0.1100000000D+01  0.1000000000D+01
 ****
      9 0
 S   3 1.00       0.000000000000
      0.1873113696D+02  0.3349460434D-01
      0.2825394365D+01  0.2347269535D+00
      0.6401216923D+00  0.8137573261D+00
 S   1 1.00       0.000000000000
      0.1612777588D+00  0.1000000000D+01
 P   1 1.00       0.000000000000
      0.1100000000D+01  0.1000000000D+01
 ****
     10 0
 S   3 1.00       0.000000000000
      0.1873113696D+02  0.3349460434D-01
      0.2825394365D+01  0.2347269535D+00
      0.6401216923D+00  0.8137573261D+00
 S   1 1.00       0.000000000000
      0.1612777588D+00  0.1000000000D+01
 P   1 1.00       0.000000000000
      0.1100000000D+01  0.1000000000D+01
 ****
     11 0
 S   3 1.00       0.000000000000
      0.1873113696D+02  0.3349460434D-01
      0.2825394365D+01  0.2347269535D+00
      0.6401216923D+00  0.8137573261D+00
 S   1 1.00       0.000000000000
      0.1612777588D+00  0.1000000000D+01
 P   1 1.00       0.000000000000
      0.1100000000D+01  0.1000000000D+01
 ****

 There are   115 symmetry adapted cartesian basis functions of A   symmetry.
 There are   115 symmetry adapted basis functions of A   symmetry.
   115 basis functions,   203 primitive gaussians,   115 cartesian basis functions
    21 alpha electrons       21 beta electrons
       nuclear repulsion energy       206.3758043235 Hartrees.
 IExCor= 1009 DFT=T Ex+Corr=PBE1PBE ExCW=0 ScaHFX=  0.250000
 ScaDFX=  0.750000  0.750000  1.000000  1.000000 ScalE2=  1.000000  1.000000
 IRadAn=      5 IRanWt=     -1 IRanGd=            0 ICorTp=0 IEmpDi=141
 NAtoms=   11 NActive=   11 NUniq=   11 SFac= 1.00D+00 NAtFMM=   60 NAOKFM=F Big=F
 Integral buffers will be    131072 words long.
 Regular integral format.
 Two-electron integral symmetry is turned on.
 R6Disp:  Grimme-D3(BJ) Dispersion energy=       -0.0084535306 Hartrees.
 Nuclear repulsion after empirical dispersion term =      206.3673507929 Hartrees.
 ------------------------------------------------------------------------------
 Polarizable Continuum Model (PCM)
 =================================
 Model                : PCM.
 Atomic radii         : UFF (Universal Force Field).
 Polarization charges : Total charges.
 Charge compensation  : None.
 Solution method      : On-the-fly selection.
 Cavity type          : Scaled VdW (van der Waals Surface) (Alpha=1.100).
 Cavity algorithm     : GePol (No added spheres)
                        Default sphere list used, NSphG=   11.
                        Lebedev-Laikov grids with approx.  5.0 points / Ang**2.
                        Smoothing algorithm: York/Karplus (Gamma=1.0000).
                        Polarization charges: spherical gaussians, with
                                              point-specific exponents (IZeta= 3).
                        Self-potential: point-specific (ISelfS= 7).
                        Self-field    : sphere-specific E.n sum rule (ISelfD= 2).
 1st derivatives      : Analytical E(r).r(x)/FMM algorithm (CHGder, D1EAlg=3).
                        Cavity 1st derivative terms included.
 Solvent              : Toluene, Eps=   2.374100 Eps(inf)=   2.238315
 ------------------------------------------------------------------------------
 Spheres list:
 ISph  on   Nord     Re0    Alpha      Xe            Ye            Ze
    1   C      1    1.9255  1.100      1.138700     -0.719883     -0.000021
    2   C      2    1.9255  1.100      1.195354      0.671001      0.000019
    3   C      3    1.9255  1.100     -0.000055      1.381788      0.000019
    4   C      4    1.9255  1.100     -1.195416      0.670896      0.000019
    5   C      5    1.9255  1.100     -1.138650     -0.719980      0.000029
    6   N      6    1.8300  1.100      0.000069     -1.417212     -0.000061
    7   H      7    1.4430  1.100      2.057151     -1.304509     -0.000041
    8   H      8    1.4430  1.100      2.153979      1.179547      0.000039
    9   H      9    1.4430  1.100     -0.000110      2.467818      0.000049
   10   H     10    1.4430  1.100     -2.154071      1.179379      0.000019
   11   H     11    1.4430  1.100     -2.057029     -1.304684     -0.000041
 ------------------------------------------------------------------------------
 GePol: Number of generator spheres                  =      11
 GePol: Total number of spheres                      =      11
 GePol: Number of exposed spheres                    =      11 (100.00%)
 GePol: Number of points                             =    1032
 GePol: Average weight of points                     =       0.13
 GePol: Minimum weight of points                     =   0.21D-07
 GePol: Maximum weight of points                     =    0.20577
 GePol: Number of points with low weight             =      58
 GePol: Fraction of low-weight points (<1% of avg)   =       5.62%
 GePol: Cavity surface area                          =    136.782 Ang**2
 GePol: Cavity volume                                =    127.757 Ang**3
 Leave Link  301 at Thu Jun 16 00:04:14 2022, MaxMem=  1342177280 cpu:               1.3 elap:               0.5
 (Enter /gpfs1/apps/software/Gaussian16/AVX/g16/l302.exe)
 NPDir=0 NMtPBC=     1 NCelOv=     1 NCel=       1 NClECP=     1 NCelD=      1
         NCelK=      1 NCelE2=     1 NClLst=     1 CellRange=     0.0.
 One-electron integrals computed using PRISM.
 One-electron integral symmetry used in STVInt
 NBasis=   115 RedAO= T EigKep=  8.49D-04  NBF=   115
 NBsUse=   115 1.00D-06 EigRej= -1.00D+00 NBFU=   115
 Precomputing XC quadrature grid using
 IXCGrd= 4 IRadAn=           5 IRanWt=          -1 IRanGd=           0 AccXCQ= 0.00D+00.
 Generated NRdTot=       0 NPtTot=           0 NUsed=           0 NTot=          32
 NSgBfM=   115   115   115   115   115 MxSgAt=    11 MxSgA2=    11.
 Leave Link  302 at Thu Jun 16 00:04:16 2022, MaxMem=  1342177280 cpu:               1.2 elap:               0.4
 (Enter /gpfs1/apps/software/Gaussian16/AVX/g16/l303.exe)
 DipDrv:  MaxL=1.
 Leave Link  303 at Thu Jun 16 00:04:20 2022, MaxMem=  1342177280 cpu:               0.5 elap:               0.3
 (Enter /gpfs1/apps/software/Gaussian16/AVX/g16/l308.exe)
 Leave Link  308 at Thu Jun 16 00:04:23 2022, MaxMem=  1342177280 cpu:               0.2 elap:               0.1
 (Enter /gpfs1/apps/software/Gaussian16/AVX/g16/l401.exe)
 ExpMin= 1.61D-01 ExpMax= 4.17D+03 ExpMxC= 6.27D+02 IAcc=3 IRadAn=         5 AccDes= 0.00D+00
 Harris functional with IExCor= 1009 and IRadAn=       5 diagonalized for initial guess.
 HarFok:  IExCor= 1009 AccDes= 0.00D+00 IRadAn=         5 IDoV= 1 UseB2=F ITyADJ=14
 ICtDFT=  3500011 ScaDFX=  1.000000  1.000000  1.000000  1.000000
 FoFCou: FMM=F IPFlag=           0 FMFlag=      100000 FMFlg1=           0
         NFxFlg=           0 DoJE=T BraDBF=F KetDBF=T FulRan=T
         wScrn=  0.000000 ICntrl=       500 IOpCl=  0 I1Cent=   200000004 NGrid=           0
         NMat0=    1 NMatS0=      1 NMatT0=    0 NMatD0=    1 NMtDS0=    0 NMtDT0=    0
 Petite list used in FoFCou.
 Harris En= -248.066514675185    
 JPrj=0 DoOrth=F DoCkMO=F.
 Leave Link  401 at Thu Jun 16 00:04:31 2022, MaxMem=  1342177280 cpu:               8.5 elap:               3.6
 (Enter /gpfs1/apps/software/Gaussian16/AVX/g16/l502.exe)
 Keep R1 ints in memory in canonical form, NReq=26005709.
 FoFCou: FMM=F IPFlag=           0 FMFlag=           0 FMFlg1=           0
         NFxFlg=           0 DoJE=F BraDBF=F KetDBF=F FulRan=T
         wScrn=  0.000000 ICntrl=       600 IOpCl=  0 I1Cent=           0 NGrid=           0
         NMat0=    1 NMatS0=   6670 NMatT0=    0 NMatD0=    1 NMtDS0=    0 NMtDT0=    0
 Symmetry not used in FoFCou.
 Two-electron integral symmetry not used.
 Closed shell SCF:
 Using DIIS extrapolation, IDIIS=  1040.
 NGot=  1342177280 LenX=  1319900773 LenY=  1319887107
 Requested convergence on RMS density matrix=1.00D-08 within 128 cycles.
 Requested convergence on MAX density matrix=1.00D-06.
 Requested convergence on             energy=1.00D-06.
 No special actions if energy rises.

 Cycle   1  Pass 1  IDiag  1:
 Inv3:  Mode=1 IEnd=     3195072.
 Iteration    1 A*A^-1 deviation from unit magnitude is 3.11D-15 for   1011.
 Iteration    1 A*A^-1 deviation from orthogonality  is 2.26D-15 for    990    136.
 Iteration    1 A^-1*A deviation from unit magnitude is 3.22D-15 for   1031.
 Iteration    1 A^-1*A deviation from orthogonality  is 1.42D-15 for    950    129.
 E= -247.906740871101    
 DIIS: error= 4.00D-02 at cycle   1 NSaved=   1.
 NSaved= 1 IEnMin= 1 EnMin= -247.906740871101     IErMin= 1 ErrMin= 4.00D-02
 ErrMax= 4.00D-02  0.00D+00 EMaxC= 1.00D-01 BMatC= 9.60D-02 BMatP= 9.60D-02
 IDIUse=3 WtCom= 6.00D-01 WtEn= 4.00D-01
 Coeff-Com:  0.100D+01
 Coeff-En:   0.100D+01
 Coeff:      0.100D+01
 Gap=     0.262 Goal=   None    Shift=    0.000
 GapD=    0.262 DampG=1.000 DampE=0.500 DampFc=0.5000 IDamp=-1.
 Damping current iteration by 5.00D-01
 RMSDP=5.72D-03 MaxDP=9.14D-02              OVMax= 1.28D-01

 Cycle   2  Pass 1  IDiag  1:
 E= -247.957517903249     Delta-E=       -0.050777032147 Rises=F Damp=T
 DIIS: error= 9.00D-03 at cycle   2 NSaved=   2.
 NSaved= 2 IEnMin= 2 EnMin= -247.957517903249     IErMin= 2 ErrMin= 9.00D-03
 ErrMax= 9.00D-03  0.00D+00 EMaxC= 1.00D-01 BMatC= 7.63D-03 BMatP= 9.60D-02
 IDIUse=3 WtCom= 9.10D-01 WtEn= 9.00D-02
 Coeff-Com: -0.950D-01 0.110D+01
 Coeff-En:   0.000D+00 0.100D+01
 Coeff:     -0.865D-01 0.109D+01
 Gap=     0.245 Goal=   None    Shift=    0.000
 RMSDP=1.35D-03 MaxDP=1.51D-02 DE=-5.08D-02 OVMax= 8.49D-02

 Cycle   3  Pass 1  IDiag  1:
 E= -248.004632588083     Delta-E=       -0.047114684834 Rises=F Damp=F
 DIIS: error= 5.53D-03 at cycle   3 NSaved=   3.
 NSaved= 3 IEnMin= 3 EnMin= -248.004632588083     IErMin= 3 ErrMin= 5.53D-03
 ErrMax= 5.53D-03  0.00D+00 EMaxC= 1.00D-01 BMatC= 2.20D-03 BMatP= 7.63D-03
 IDIUse=3 WtCom= 9.45D-01 WtEn= 5.53D-02
 Coeff-Com: -0.842D-01 0.374D+00 0.710D+00
 Coeff-En:   0.000D+00 0.000D+00 0.100D+01
 Coeff:     -0.796D-01 0.353D+00 0.726D+00
 Gap=     0.255 Goal=   None    Shift=    0.000
 RMSDP=6.46D-04 MaxDP=1.04D-02 DE=-4.71D-02 OVMax= 3.81D-02

 Cycle   4  Pass 1  IDiag  1:
 E= -248.005779710052     Delta-E=       -0.001147121969 Rises=F Damp=F
 DIIS: error= 4.18D-03 at cycle   4 NSaved=   4.
 NSaved= 4 IEnMin= 4 EnMin= -248.005779710052     IErMin= 4 ErrMin= 4.18D-03
 ErrMax= 4.18D-03  0.00D+00 EMaxC= 1.00D-01 BMatC= 1.06D-03 BMatP= 2.20D-03
 IDIUse=3 WtCom= 9.58D-01 WtEn= 4.18D-02
 Coeff-Com: -0.381D-01 0.119D+00 0.440D+00 0.479D+00
 Coeff-En:   0.000D+00 0.000D+00 0.349D+00 0.651D+00
 Coeff:     -0.365D-01 0.114D+00 0.436D+00 0.487D+00
 Gap=     0.248 Goal=   None    Shift=    0.000
 RMSDP=3.30D-04 MaxDP=6.13D-03 DE=-1.15D-03 OVMax= 1.66D-02

 Cycle   5  Pass 1  IDiag  1:
 E= -248.006920699927     Delta-E=       -0.001140989875 Rises=F Damp=F
 DIIS: error= 8.42D-04 at cycle   5 NSaved=   5.
 NSaved= 5 IEnMin= 5 EnMin= -248.006920699927     IErMin= 5 ErrMin= 8.42D-04
 ErrMax= 8.42D-04  0.00D+00 EMaxC= 1.00D-01 BMatC= 4.24D-05 BMatP= 1.06D-03
 IDIUse=3 WtCom= 9.92D-01 WtEn= 8.42D-03
 Coeff-Com: -0.110D-01 0.264D-01 0.153D+00 0.236D+00 0.595D+00
 Coeff-En:   0.000D+00 0.000D+00 0.000D+00 0.000D+00 0.100D+01
 Coeff:     -0.110D-01 0.262D-01 0.152D+00 0.234D+00 0.599D+00
 Gap=     0.249 Goal=   None    Shift=    0.000
 RMSDP=6.27D-05 MaxDP=1.91D-03 DE=-1.14D-03 OVMax= 3.30D-03

 Cycle   6  Pass 1  IDiag  1:
 E= -248.006955433414     Delta-E=       -0.000034733487 Rises=F Damp=F
 DIIS: error= 2.59D-04 at cycle   6 NSaved=   6.
 NSaved= 6 IEnMin= 6 EnMin= -248.006955433414     IErMin= 6 ErrMin= 2.59D-04
 ErrMax= 2.59D-04  0.00D+00 EMaxC= 1.00D-01 BMatC= 5.55D-06 BMatP= 4.24D-05
 IDIUse=3 WtCom= 9.97D-01 WtEn= 2.59D-03
 Coeff-Com: -0.430D-02 0.845D-02 0.627D-01 0.108D+00 0.350D+00 0.474D+00
 Coeff-En:   0.000D+00 0.000D+00 0.000D+00 0.000D+00 0.229D-01 0.977D+00
 Coeff:     -0.429D-02 0.843D-02 0.625D-01 0.108D+00 0.350D+00 0.476D+00
 Gap=     0.249 Goal=   None    Shift=    0.000
 RMSDP=1.62D-05 MaxDP=5.36D-04 DE=-3.47D-05 OVMax= 6.63D-04

 Cycle   7  Pass 1  IDiag  1:
 E= -248.006960083167     Delta-E=       -0.000004649753 Rises=F Damp=F
 DIIS: error= 1.34D-05 at cycle   7 NSaved=   7.
 NSaved= 7 IEnMin= 7 EnMin= -248.006960083167     IErMin= 7 ErrMin= 1.34D-05
 ErrMax= 1.34D-05  0.00D+00 EMaxC= 1.00D-01 BMatC= 1.83D-08 BMatP= 5.55D-06
 IDIUse=1 WtCom= 1.00D+00 WtEn= 0.00D+00
 Coeff-Com: -0.291D-03 0.385D-03 0.457D-02 0.788D-02 0.316D-01 0.800D-01
 Coeff-Com:  0.876D+00
 Coeff:     -0.291D-03 0.385D-03 0.457D-02 0.788D-02 0.316D-01 0.800D-01
 Coeff:      0.876D+00
 Gap=     0.249 Goal=   None    Shift=    0.000
 RMSDP=1.71D-06 MaxDP=3.67D-05 DE=-4.65D-06 OVMax= 6.39D-05

 Cycle   8  Pass 1  IDiag  1:
 E= -248.006960093587     Delta-E=       -0.000000010420 Rises=F Damp=F
 DIIS: error= 9.37D-06 at cycle   8 NSaved=   8.
 NSaved= 8 IEnMin= 8 EnMin= -248.006960093587     IErMin= 8 ErrMin= 9.37D-06
 ErrMax= 9.37D-06  0.00D+00 EMaxC= 1.00D-01 BMatC= 7.60D-09 BMatP= 1.83D-08
 IDIUse=1 WtCom= 1.00D+00 WtEn= 0.00D+00
 Coeff-Com:  0.932D-04-0.293D-03-0.115D-02-0.203D-02-0.304D-02 0.185D-01
 Coeff-Com:  0.493D+00 0.495D+00
 Coeff:      0.932D-04-0.293D-03-0.115D-02-0.203D-02-0.304D-02 0.185D-01
 Coeff:      0.493D+00 0.495D+00
 Gap=     0.249 Goal=   None    Shift=    0.000
 RMSDP=6.25D-07 MaxDP=2.07D-05 DE=-1.04D-08 OVMax= 3.16D-05

 Cycle   9  Pass 1  IDiag  1:
 E= -248.006960100678     Delta-E=       -0.000000007091 Rises=F Damp=F
 DIIS: error= 6.10D-07 at cycle   9 NSaved=   9.
 NSaved= 9 IEnMin= 9 EnMin= -248.006960100678     IErMin= 9 ErrMin= 6.10D-07
 ErrMax= 6.10D-07  0.00D+00 EMaxC= 1.00D-01 BMatC= 3.19D-11 BMatP= 7.60D-09
 IDIUse=1 WtCom= 1.00D+00 WtEn= 0.00D+00
 Coeff-Com:  0.268D-04-0.535D-04-0.380D-03-0.708D-03-0.229D-02-0.121D-02
 Coeff-Com:  0.883D-02 0.502D-01 0.946D+00
 Coeff:      0.268D-04-0.535D-04-0.380D-03-0.708D-03-0.229D-02-0.121D-02
 Coeff:      0.883D-02 0.502D-01 0.946D+00
 Gap=     0.249 Goal=   None    Shift=    0.000
 RMSDP=7.12D-08 MaxDP=1.35D-06 DE=-7.09D-09 OVMax= 3.11D-06

 Cycle  10  Pass 1  IDiag  1:
 E= -248.006960100717     Delta-E=       -0.000000000039 Rises=F Damp=F
 DIIS: error= 1.40D-07 at cycle  10 NSaved=  10.
 NSaved=10 IEnMin=10 EnMin= -248.006960100717     IErMin=10 ErrMin= 1.40D-07
 ErrMax= 1.40D-07  0.00D+00 EMaxC= 1.00D-01 BMatC= 2.22D-12 BMatP= 3.19D-11
 IDIUse=1 WtCom= 1.00D+00 WtEn= 0.00D+00
 Coeff-Com:  0.627D-06 0.451D-06 0.521D-05-0.107D-04-0.110D-03 0.709D-04
 Coeff-Com: -0.642D-02-0.101D-01 0.465D-01 0.970D+00
 Coeff:      0.627D-06 0.451D-06 0.521D-05-0.107D-04-0.110D-03 0.709D-04
 Coeff:     -0.642D-02-0.101D-01 0.465D-01 0.970D+00
 Gap=     0.249 Goal=   None    Shift=    0.000
 RMSDP=1.36D-08 MaxDP=2.13D-07 DE=-3.92D-11 OVMax= 3.32D-07

 Cycle  11  Pass 1  IDiag  1:
 E= -248.006960100720     Delta-E=       -0.000000000003 Rises=F Damp=F
 DIIS: error= 2.34D-08 at cycle  11 NSaved=  11.
 NSaved=11 IEnMin=11 EnMin= -248.006960100720     IErMin=11 ErrMin= 2.34D-08
 ErrMax= 2.34D-08  0.00D+00 EMaxC= 1.00D-01 BMatC= 8.70D-14 BMatP= 2.22D-12
 IDIUse=1 WtCom= 1.00D+00 WtEn= 0.00D+00
 Coeff-Com: -0.871D-06 0.185D-05 0.156D-04 0.261D-04 0.646D-04 0.128D-03
 Coeff-Com: -0.679D-03-0.361D-02-0.292D-01 0.638D-01 0.969D+00
 Coeff:     -0.871D-06 0.185D-05 0.156D-04 0.261D-04 0.646D-04 0.128D-03
 Coeff:     -0.679D-03-0.361D-02-0.292D-01 0.638D-01 0.969D+00
 Gap=     0.249 Goal=   None    Shift=    0.000
 RMSDP=2.88D-09 MaxDP=4.98D-08 DE=-3.13D-12 OVMax= 1.04D-07

 Error on total polarization charges =  0.00415
 SCF Done:  E(RPBE1PBE) =  -248.006960101     A.U. after   11 cycles
            NFock= 11  Conv=0.29D-08     -V/T= 2.0089
 KE= 2.458280169869D+02 PE=-9.882210382214D+02 EE= 2.880187103409D+02
 Leave Link  502 at Thu Jun 16 00:04:48 2022, MaxMem=  1342177280 cpu:              52.8 elap:              13.6
 (Enter /gpfs1/apps/software/Gaussian16/AVX/g16/l801.exe)
 DoSCS=F DFT=T ScalE2(SS,OS)=  1.000000  1.000000
 ExpMin= 1.61D-01 ExpMax= 4.17D+03 ExpMxC= 6.27D+02 IAcc=3 IRadAn=         5 AccDes= 0.00D+00
 HarFok:  IExCor=  205 AccDes= 0.00D+00 IRadAn=         5 IDoV=-2 UseB2=F ITyADJ=14
 ICtDFT= 12500011 ScaDFX=  1.000000  1.000000  1.000000  1.000000
 Largest valence mixing into a core orbital is  6.87D-05
 Largest core mixing into a valence orbital is  1.48D-05
 Range of M.O.s used for correlation:     7   115
 NBasis=   115 NAE=    21 NBE=    21 NFC=     6 NFV=     0
 NROrb=    109 NOA=    15 NOB=    15 NVA=    94 NVB=    94
 Leave Link  801 at Thu Jun 16 00:04:50 2022, MaxMem=  1342177280 cpu:               1.0 elap:               0.4
 (Enter /gpfs1/apps/software/Gaussian16/AVX/g16/l914.exe)
 RHF ground state
 Keep R1, R2, and R3 ints in memory in canonical form, NReq=81642735.
 FoFCou: FMM=F IPFlag=           0 FMFlag=           0 FMFlg1=           0
         NFxFlg=           0 DoJE=F BraDBF=F KetDBF=F FulRan=T
         wScrn=  0.000000 ICntrl=       600 IOpCl=  0 I1Cent=           0 NGrid=           0
         NMat0=    1 NMatS0=   6670 NMatT0=    0 NMatD0=    1 NMtDS0=    0 NMtDT0=    0
 Symmetry not used in FoFCou.
 Two-electron integral symmetry not used.
 MDV=  1342177280 DFT=T DoStab=F Mixed=T DoRPA=F DoScal=F NonHer=F
 NEqPCM:  Using equilibrium solvation (IEInf=0, Eps=   2.3741, EpsInf=   2.2383)
 Making orbital integer symmetry assigments:
 Orbital symmetries:
       Occupied  (A) (A) (A) (A) (A) (A) (A) (A) (A) (A) (A) (A)
                 (A) (A) (A) (A) (A) (A) (A) (A) (A)
       Virtual   (A) (A) (A) (A) (A) (A) (A) (A) (A) (A) (A) (A)
                 (A) (A) (A) (A) (A) (A) (A) (A) (A) (A) (A) (A)
                 (A) (A) (A) (A) (A) (A) (A) (A) (A) (A) (A) (A)
                 (A) (A) (A) (A) (A) (A) (A) (A) (A) (A) (A) (A)
                 (A) (A) (A) (A) (A) (A) (A) (A) (A) (A) (A) (A)
                 (A) (A) (A) (A) (A) (A) (A) (A) (A) (A) (A) (A)
                 (A) (A) (A) (A) (A) (A) (A) (A) (A) (A) (A) (A)
                 (A) (A) (A) (A) (A) (A) (A) (A) (A) (A)
    40 initial guesses have been made.
 Convergence on wavefunction:    0.000001000000000
 Davidson Disk Diagonalization:  ConvIn= 1.00D-06 SkipCon=T Conv= 1.00D-06.
 Max sub-space:  2000 roots to seek:    40 dimension of matrix:         2820
 Iteration     1 Dimension    40 NMult     0 NNew     40
 CISAX will form    40 AO SS matrices at one time.
 NMat=    40 NSing=    40 JSym2X= 0.
 New state      2 was old state      3
 New state      3 was old state      2
 New state      5 was old state      7
 New state      6 was old state      8
 New state      7 was old state     12
 New state      8 was old state     10
 New state     10 was old state      6
 Excitation Energies [eV] at current iteration:
 Root      1 :     5.138140842270632
 Root      2 :     5.398480943150256
 Root      3 :     5.894123192518788
 Root      4 :     7.579502080927572
 Root      5 :     7.890679768750786
 Root      6 :     8.309202293560020
 Root      7 :     8.995440991180097
 Root      8 :     8.996141237131772
 Root      9 :     9.005863452891488
 Root     10 :     9.230167850956347
 Root     11 :     9.450615822150681
 Root     12 :     9.642969300828321
 Root     13 :     9.672432029445597
 Root     14 :     9.743276451133754
 Root     15 :     9.818749302457265
 Root     16 :    10.041108841366768
 Root     17 :    10.153442855727318
 Root     18 :    10.192814803281808
 Root     19 :    10.238768270634980
 Root     20 :    10.261088919950360
 Root     21 :    10.670839939612028
 Root     22 :    10.770866582282904
 Root     23 :    11.018153078209156
 Root     24 :    11.053252248915072
 Root     25 :    11.110021045722549
 Root     26 :    11.314692937798899
 Root     27 :    11.366915156251872
 Root     28 :    11.458714285412039
 Root     29 :    11.473853013535781
 Root     30 :    11.519741854871970
 Root     31 :    11.637288491375612
 Root     32 :    11.669402022978391
 Root     33 :    11.862047243059013
 Root     34 :    12.172523341733855
 Root     35 :    12.209445364888728
 Root     36 :    12.314879045149228
 Root     37 :    12.421832953306287
 Root     38 :    12.888107061473852
 Root     39 :    12.943568139764114
 Root     40 :    13.538165950796490
 Iteration     2 Dimension    80 NMult    40 NNew     40
 CISAX will form    40 AO SS matrices at one time.
 NMat=    40 NSing=    40 JSym2X= 0.
 Root      1 not converged, maximum delta is    0.014989541038229
 Root      2 not converged, maximum delta is    0.014585962428239
 Root      3 not converged, maximum delta is    0.044697249853033
 Root      4 not converged, maximum delta is    0.049870033660100
 Root      5 not converged, maximum delta is    0.031145125182219
 New state      6 was old state     10
 Root      6 not converged, maximum delta is    0.154805880327172
 New state      7 was old state     13
 Root      7 not converged, maximum delta is    0.287855028525569
 New state      8 was old state      6
 Root      8 not converged, maximum delta is    0.028908418673591
 New state      9 was old state      7
 Root      9 not converged, maximum delta is    0.026746702770129
 New state     10 was old state      8
 Root     10 not converged, maximum delta is    0.034411385531425
 Excitation Energies [eV] at current iteration:
 Root      1 :     5.074313580839891   Change is   -0.063827261430740
 Root      2 :     5.374783492454278   Change is   -0.023697450695977
 Root      3 :     5.793806923761957   Change is   -0.100316268756831
 Root      4 :     6.843528049481047   Change is   -0.735974031446526
 Root      5 :     7.839294821740344   Change is   -0.051384947010443
 Root      6 :     7.985711215873663   Change is   -1.244456635082684
 Root      7 :     8.104218851902056   Change is   -1.568213177543542
 Root      8 :     8.267630035642801   Change is   -0.041572257917220
 Root      9 :     8.928871798975083   Change is   -0.066569192205014
 Root     10 :     8.958209146057481   Change is   -0.037932091074290
 Root     11 :     9.060707263500522   Change is    0.054843810609034
 Root     12 :     9.405880779976410   Change is   -0.044735042174269
 Root     13 :     9.606582236432677   Change is   -0.036387064395643
 Root     14 :     9.711911568663993   Change is   -0.031364882469761
 Root     15 :     9.752605971753139   Change is   -0.066143330704125
 Root     16 :     9.847132330432833   Change is   -0.345682472848974
 Root     17 :     9.892637344999507   Change is   -0.148471496367261
 Root     18 :    10.114377479882194   Change is   -0.039065375845125
 Root     19 :    10.198897412875398   Change is   -0.039870857759581
 Root     20 :    10.208401286734720   Change is   -0.052687633215640
 Root     21 :    10.618199984902683   Change is   -0.052639954709347
 Root     22 :    10.730683132560962   Change is   -0.040183449721941
 Root     23 :    10.965368497945699   Change is   -0.087883750969374
 Root     24 :    10.991982548004026   Change is   -0.026170530205130
 Root     25 :    11.066423533754184   Change is   -1.355409419552103
 Root     26 :    11.079111035434067   Change is   -0.030910010288481
 Root     27 :    11.231972302392109   Change is   -0.082720635406791
 Root     28 :    11.335578998441994   Change is   -0.031336157809878
 Root     29 :    11.392505934037141   Change is   -0.066208351374897
 Root     30 :    11.442162846896650   Change is   -0.031690166639129
 Root     31 :    11.467856631661094   Change is   -0.051885223210875
 Root     32 :    11.513292963835983   Change is   -0.123995527539628
 Root     33 :    11.546984933138948   Change is   -0.122417089839442
 Root     34 :    11.615147163609038   Change is   -0.699731881540189
 Root     35 :    11.793369636487368   Change is   -0.068677606571645
 Root     36 :    12.104041950032949   Change is   -0.068481391700906
 Root     37 :    12.156325688277851   Change is   -0.053119676610876
 Root     38 :    12.439123408853920   Change is   -1.099042541942569
 Root     39 :    12.850586543599787   Change is   -0.037520517874064
 Root     40 :    12.947161125954537   Change is    0.003592986190422
 Iteration     3 Dimension    90 NMult    80 NNew     10
 CISAX will form    10 AO SS matrices at one time.
 NMat=    10 NSing=    10 JSym2X= 0.
 Root      1 not converged, maximum delta is    0.001706082703727
 Root      2 not converged, maximum delta is    0.000814835991106
 Root      3 not converged, maximum delta is    0.001308088935384
 Root      4 not converged, maximum delta is    0.009198780128352
 Root      5 not converged, maximum delta is    0.002614411372846
 Root      6 not converged, maximum delta is    0.007241962392880
 Root      7 not converged, maximum delta is    0.005474234448529
 Root      8 not converged, maximum delta is    0.002071510007858
 Root      9 not converged, maximum delta is    0.002423179969395
 Root     10 not converged, maximum delta is    0.002670121457222
 Excitation Energies [eV] at current iteration:
 Root      1 :     5.073712458587579   Change is   -0.000601122252312
 Root      2 :     5.374677160416455   Change is   -0.000106332037823
 Root      3 :     5.793057858963052   Change is   -0.000749064798905
 Root      4 :     6.839219170962616   Change is   -0.004308878518431
 Root      5 :     7.838720782245010   Change is   -0.000574039495333
 Root      6 :     7.975658258093139   Change is   -0.010052957780524
 Root      7 :     8.093741311470682   Change is   -0.010477540431375
 Root      8 :     8.267108951033107   Change is   -0.000521084609694
 Root      9 :     8.927914867335593   Change is   -0.000956931639490
 Root     10 :     8.957805615671994   Change is   -0.000403530385488
 Iteration     4 Dimension   100 NMult    90 NNew     10
 CISAX will form    10 AO SS matrices at one time.
 NMat=    10 NSing=    10 JSym2X= 0.
 Root      1 not converged, maximum delta is    0.000143053346864
 Root      2 not converged, maximum delta is    0.000019944241666
 Root      3 not converged, maximum delta is    0.000085490199995
 Root      4 not converged, maximum delta is    0.000899742354930
 Root      5 not converged, maximum delta is    0.000294555493639
 Root      6 not converged, maximum delta is    0.000558135216357
 Root      7 not converged, maximum delta is    0.000378543391157
 Root      8 not converged, maximum delta is    0.000210700360423
 Root      9 not converged, maximum delta is    0.000167579326321
 Root     10 not converged, maximum delta is    0.000106283870847
 Excitation Energies [eV] at current iteration:
 Root      1 :     5.073711274216430   Change is   -0.000001184371148
 Root      2 :     5.374677038268449   Change is   -0.000000122148006
 Root      3 :     5.793055501170741   Change is   -0.000002357792311
 Root      4 :     6.839138455396276   Change is   -0.000080715566340
 Root      5 :     7.838718381170394   Change is   -0.000002401074616
 Root      6 :     7.975602809238866   Change is   -0.000055448854274
 Root      7 :     8.093691403253271   Change is   -0.000049908217410
 Root      8 :     8.267107151641525   Change is   -0.000001799391581
 Root      9 :     8.927912308397239   Change is   -0.000002558938353
 Root     10 :     8.957803805979491   Change is   -0.000001809692502
 Iteration     5 Dimension   110 NMult   100 NNew     10
 CISAX will form    10 AO SS matrices at one time.
 NMat=    10 NSing=    10 JSym2X= 0.
 Root      1 not converged, maximum delta is    0.000005545934840
 Root      2 not converged, maximum delta is    0.000001249967898
 Root      3 not converged, maximum delta is    0.000007171962358
 Root      4 not converged, maximum delta is    0.000067246705391
 Root      5 not converged, maximum delta is    0.000016335444479
 Root      6 not converged, maximum delta is    0.000034935245887
 Root      7 not converged, maximum delta is    0.000030440472869
 Root      8 not converged, maximum delta is    0.000019329716426
 Root      9 not converged, maximum delta is    0.000022116532135
 Root     10 not converged, maximum delta is    0.000013940291245
 Excitation Energies [eV] at current iteration:
 Root      1 :     5.073711271475275   Change is   -0.000000002741156
 Root      2 :     5.374677038052237   Change is   -0.000000000216212
 Root      3 :     5.793055486732651   Change is   -0.000000014438089
 Root      4 :     6.839137885528046   Change is   -0.000000569868231
 Root      5 :     7.838718370044927   Change is   -0.000000011125467
 Root      6 :     7.975602438328092   Change is   -0.000000370910773
 Root      7 :     8.093691136698894   Change is   -0.000000266554378
 Root      8 :     8.267107139633966   Change is   -0.000000012007559
 Root      9 :     8.927912292267072   Change is   -0.000000016130167
 Root     10 :     8.957803797773533   Change is   -0.000000008205959
 Iteration     6 Dimension   120 NMult   110 NNew     10
 CISAX will form    10 AO SS matrices at one time.
 NMat=    10 NSing=    10 JSym2X= 0.
 Root      1 has converged.
 Root      2 has converged.
 Root      3 has converged.
 Root      4 not converged, maximum delta is    0.000003808331469
 Root      5 has converged.
 Root      6 not converged, maximum delta is    0.000004907662455
 Root      7 not converged, maximum delta is    0.000002844701215
 Root      8 has converged.
 Root      9 has converged.
 Root     10 has converged.
 Excitation Energies [eV] at current iteration:
 Root      1 :     5.073711271472990   Change is   -0.000000000002284
 Root      2 :     5.374677038051978   Change is   -0.000000000000260
 Root      3 :     5.793055486654962   Change is   -0.000000000077690
 Root      4 :     6.839137881544450   Change is   -0.000000003983596
 Root      5 :     7.838718370007532   Change is   -0.000000000037395
 Root      6 :     7.975602434855149   Change is   -0.000000003472944
 Root      7 :     8.093691135361786   Change is   -0.000000001337108
 Root      8 :     8.267107139603544   Change is   -0.000000000030422
 Root      9 :     8.927912292197238   Change is   -0.000000000069835
 Root     10 :     8.957803797720658   Change is   -0.000000000052875
 Iteration     7 Dimension   123 NMult   120 NNew      3
 CISAX will form     3 AO SS matrices at one time.
 NMat=     3 NSing=     3 JSym2X= 0.
 Root      1 has converged.
 Root      2 has converged.
 Root      3 has converged.
 Root      4 has converged.
 Root      5 has converged.
 Root      6 has converged.
 Root      7 has converged.
 Root      8 has converged.
 Root      9 has converged.
 Root     10 has converged.
 Excitation Energies [eV] at current iteration:
 Root      1 :     5.073711271472936   Change is   -0.000000000000054
 Root      2 :     5.374677038051965   Change is   -0.000000000000012
 Root      3 :     5.793055486654780   Change is   -0.000000000000181
 Root      4 :     6.839137881526064   Change is   -0.000000000018386
 Root      5 :     7.838718370007514   Change is   -0.000000000000018
 Root      6 :     7.975602434830660   Change is   -0.000000000024489
 Root      7 :     8.093691135352282   Change is   -0.000000000009504
 Root      8 :     8.267107139603544   Change is    0.000000000000000
 Root      9 :     8.927912292197256   Change is    0.000000000000018
 Root     10 :     8.957803797720670   Change is    0.000000000000012
 Convergence achieved on expansion vectors.
 ***********************************************************************
 Excited states from <AA,BB:AA,BB> singles matrix:
 ***********************************************************************
 
 1PDM for each excited state written to RWF  633
 Ground to excited state transition densities written to RWF  633
 Ground to excited state transition electric dipole moments (Au):
       state          X           Y           Z        Dip. S.      Osc.
         1        -0.0000     -0.0001      0.2313      0.0535      0.0066
         2         0.0000     -0.0000     -0.0000      0.0000      0.0000
         3        -0.5599     -0.0000     -0.0000      0.3135      0.0445
         4        -0.0001     -0.4192      0.0000      0.1757      0.0294
         5        -0.0003     -0.0002     -0.0000      0.0000      0.0000
         6         2.1023     -0.0000     -0.0000      4.4195      0.8636
         7         0.0000     -2.1047     -0.0001      4.4296      0.8783
         8        -0.0002      0.0001     -0.1843      0.0340      0.0069
         9        -0.0000     -0.0001     -0.0016      0.0000      0.0000
        10        -0.0000     -0.0001      0.0000      0.0000      0.0000
 Ground to excited state transition velocity dipole moments (Au):
       state          X           Y           Z        Dip. S.      Osc.
         1         0.0000      0.0000     -0.0092      0.0001      0.0003
         2        -0.0000      0.0000      0.0000      0.0000      0.0000
         3         0.0228      0.0000      0.0000      0.0005      0.0016
         4         0.0000      0.0544      0.0000      0.0030      0.0079
         5         0.0000      0.0000      0.0000      0.0000      0.0000
         6        -0.2317      0.0000      0.0000      0.0537      0.1221
         7        -0.0000      0.2045      0.0000      0.0418      0.0937
         8         0.0000     -0.0000      0.0443      0.0020      0.0043
         9         0.0000      0.0000      0.0256      0.0007      0.0013
        10         0.0000      0.0000     -0.0000      0.0000      0.0000
 Ground to excited state transition magnetic dipole moments (Au):
       state          X           Y           Z
         1         0.6909      0.0000     -0.0000
         2        -0.0001     -0.0289      0.0000
         3        -0.0001      0.0000     -0.1776
         4         0.0000     -0.0000     -0.0001
         5         0.0000     -0.1590      0.0000
         6         0.0000     -0.0000      0.0393
         7        -0.0000      0.0000      0.0000
         8        -0.3344      0.0000      0.0000
         9         1.2495     -0.0000     -0.0000
        10         0.0002      0.5254      0.0000
 Ground to excited state transition velocity quadrupole moments (Au):
       state          XX          YY          ZZ          XY          XZ          YZ
         1        -0.0000     -0.0000      0.0000      0.0000     -0.0000      0.0407
         2         0.0000      0.0000     -0.0000      0.0000     -0.0099     -0.0000
         3        -0.0000     -0.0000      0.0000     -0.0156      0.0000     -0.0000
         4         0.1278     -0.1530     -0.0047      0.0000      0.0000      0.0000
         5        -0.0000      0.0000      0.0000      0.0000      0.0044     -0.0000
         6        -0.0000      0.0000      0.0000     -0.0190     -0.0000     -0.0000
         7        -0.3280      0.3685      0.0320     -0.0000      0.0000     -0.0000
         8         0.0000     -0.0000      0.0000     -0.0000      0.0000     -0.0268
         9        -0.0000      0.0000      0.0000      0.0000      0.0000      0.2047
        10         0.0003     -0.0002     -0.0000     -0.0000     -0.2093      0.0000
 <0|del|b> * <b|rxdel|0> + <0|del|b> * <b|delr+rdel|0>
 Rotatory Strengths (R) in cgs (10**-40 erg-esu-cm/Gauss)
       state          XX          YY          ZZ    R(velocity)    E-M Angle
         1         0.0002      0.0022      0.0015      0.0013       90.00
         2        -0.0001      0.0000     -0.0002     -0.0001       90.00
         3        -0.0008     -0.0031     -0.0014     -0.0018       90.00
         4        -0.0024      0.0000     -0.0007     -0.0011       90.00
         5        -0.0046      0.0000     -0.0044     -0.0030       90.00
         6         0.0001     -0.0002     -0.0031     -0.0011       90.00
         7         0.0022      0.0000      0.0071      0.0031       90.00
         8         0.0007     -0.0130     -0.0118     -0.0080       90.00
         9        -0.0006      0.0140      0.0105      0.0080       90.00
        10         0.0100      0.0000      0.0043      0.0048       90.00
 1/2[<0|r|b>*<b|rxdel|0> + (<0|rxdel|b>*<b|r|0>)*]
 Rotatory Strengths (R) in cgs (10**-40 erg-esu-cm/Gauss)
       state          XX          YY          ZZ     R(length)
         1         0.0160      0.0000      0.0030      0.0064
         2         0.0000     -0.0005      0.0000     -0.0002
         3        -0.0199      0.0000     -0.0002     -0.0067
         4         0.0000     -0.0061      0.0000     -0.0020
         5         0.0000     -0.0254      0.0000     -0.0085
         6        -0.0095     -0.0000      0.0011     -0.0028
         7         0.0000      0.0284      0.0000      0.0095
         8        -0.0540     -0.0000      0.0019     -0.0174
         9         0.0401     -0.0000     -0.0000      0.0134
        10         0.0000      0.0457     -0.0000      0.0152
  1/2[<0|del|b>*<b|r|0> + (<0|r|b>*<b|del|0>)*] (Au)
       state          X           Y           Z        Dip. S.   Osc.(frdel)
         1        -0.0000     -0.0000     -0.0021      0.0021      0.0014
         2        -0.0000     -0.0000     -0.0000      0.0000      0.0000
         3        -0.0127     -0.0000     -0.0000      0.0127      0.0085
         4        -0.0000     -0.0228      0.0000      0.0228      0.0152
         5        -0.0000     -0.0000     -0.0000      0.0000      0.0000
         6        -0.4871     -0.0000     -0.0000      0.4871      0.3247
         7        -0.0000     -0.4304     -0.0000      0.4304      0.2869
         8        -0.0000     -0.0000     -0.0082      0.0082      0.0054
         9        -0.0000     -0.0000     -0.0000      0.0000      0.0000
        10        -0.0000     -0.0000     -0.0000      0.0000      0.0000

 Excitation energies and oscillator strengths:
 
 Excited State   1:      Singlet-A      5.0737 eV  244.37 nm  f=0.0066  <S**2>=0.000
      21 -> 22         0.70449
 This state for optimization and/or second-order correction.
 Total Energy, E(CIS/TDA) =  -247.820504642    
 Copying the excited state density for this state as the 1-particle RhoCI density.
 
 Excited State   2:      Singlet-A      5.3747 eV  230.68 nm  f=0.0000  <S**2>=0.000
      21 -> 23         0.70633
 
 Excited State   3:      Singlet-A      5.7931 eV  214.02 nm  f=0.0445  <S**2>=0.000
      19 -> 23         0.38831
      20 -> 22         0.58778
 
 Excited State   4:      Singlet-A      6.8391 eV  181.29 nm  f=0.0294  <S**2>=0.000
      19 -> 22        -0.41662
      20 -> 23         0.55857
 
 Excited State   5:      Singlet-A      7.8387 eV  158.17 nm  f=0.0000  <S**2>=0.000
      18 -> 22         0.70449
 
 Excited State   6:      Singlet-A      7.9756 eV  155.45 nm  f=0.8636  <S**2>=0.000
      19 -> 23         0.57359
      20 -> 22        -0.36663
 
 Excited State   7:      Singlet-A      8.0937 eV  153.19 nm  f=0.8783  <S**2>=0.000
      19 -> 22         0.53887
      20 -> 23         0.40172
      21 -> 24        -0.10353
 
 Excited State   8:      Singlet-A      8.2671 eV  149.97 nm  f=0.0069  <S**2>=0.000
      18 -> 23         0.70441
 
 Excited State   9:      Singlet-A      8.9279 eV  138.87 nm  f=0.0000  <S**2>=0.000
      16 -> 22         0.69236
      21 -> 26         0.11220
 
 Excited State  10:      Singlet-A      8.9578 eV  138.41 nm  f=0.0000  <S**2>=0.000
      20 -> 24         0.70186
 SavETr:  write IOETrn=   770 NScale= 10 NData=  16 NLR=1 NState=   10 LETran=     190.
 The selected state is a singlet.
 CISGrd: IGrad=2 NXY=1 DFT=T
 CISAX will form     1 AO SS matrices at one time.
 NMat=     1 NSing=     1 JSym2X= 0.
 GePol: Maximum number of non-zero 1st derivatives   =     198
 Leave Link  914 at Thu Jun 16 00:06:10 2022, MaxMem=  1342177280 cpu:             309.5 elap:              78.0
 (Enter /gpfs1/apps/software/Gaussian16/AVX/g16/l1002.exe)
 Minotr:  Closed shell wavefunction.
          Computing CIS/TDA/TD derivatives.
          Using Z-Vector for PSCF gradient.
          Skipping F1 and S1 gradient terms here.
          IDoAtm=11111111111
 NEqPCM:  Using equilibrium solvation (IEInf=0, Eps=   2.3741, EpsInf=   2.2383)
          Frozen-core window.
          Direct CPHF calculation.
          Differentiating once with respect to electric field.
                with respect to dipole field.
          Differentiating once with respect to nuclear coordinates.
          Requested convergence is 1.0D-10 RMS, and 1.0D-09 maximum.
          NewPWx=F KeepS1=T KeepF1=T KeepIn=T MapXYZ=F SortEE=F KeepMc=T.
 Keep R1 ints in memory in canonical form, NReq=26113434.
 FoFCou: FMM=F IPFlag=           0 FMFlag=           0 FMFlg1=           0
         NFxFlg=           0 DoJE=F BraDBF=F KetDBF=F FulRan=T
         wScrn=  0.000000 ICntrl=       600 IOpCl=  0 I1Cent=           0 NGrid=           0
         NMat0=    1 NMatS0=   6670 NMatT0=    0 NMatD0=    1 NMtDS0=    0 NMtDT0=    0
 Symmetry not used in FoFCou.
 Two-electron integral symmetry not used.
          MDV=    1342177280 using IRadAn=       5.
          Solving linear equations separately, MaxMat=       0.
          There are     1 degrees of freedom in the 1st order CPHF.  IDoFFX=0 NUNeed=     1.
 LinEq1:  Iter=  0 NonCon=     1 RMS=2.62D-02 Max=8.62D-01 NDo=     1
 AX will form     1 AO Fock derivatives at one time.
 LinEq1:  Iter=  1 NonCon=     1 RMS=5.83D-03 Max=8.58D-02 NDo=     1
 LinEq1:  Iter=  2 NonCon=     1 RMS=3.12D-03 Max=7.91D-02 NDo=     1
 LinEq1:  Iter=  3 NonCon=     1 RMS=1.42D-03 Max=2.69D-02 NDo=     1
 LinEq1:  Iter=  4 NonCon=     1 RMS=2.49D-04 Max=3.56D-03 NDo=     1
 LinEq1:  Iter=  5 NonCon=     1 RMS=1.56D-04 Max=2.99D-03 NDo=     1
 LinEq1:  Iter=  6 NonCon=     1 RMS=4.93D-05 Max=6.87D-04 NDo=     1
 LinEq1:  Iter=  7 NonCon=     1 RMS=2.34D-05 Max=2.54D-04 NDo=     1
 LinEq1:  Iter=  8 NonCon=     1 RMS=5.03D-06 Max=5.94D-05 NDo=     1
 LinEq1:  Iter=  9 NonCon=     1 RMS=9.28D-07 Max=8.93D-06 NDo=     1
 LinEq1:  Iter= 10 NonCon=     1 RMS=2.28D-07 Max=4.49D-06 NDo=     1
 LinEq1:  Iter= 11 NonCon=     1 RMS=1.80D-07 Max=3.85D-06 NDo=     1
 LinEq1:  Iter= 12 NonCon=     1 RMS=4.22D-08 Max=5.37D-07 NDo=     1
 LinEq1:  Iter= 13 NonCon=     1 RMS=5.49D-09 Max=4.98D-08 NDo=     1
 LinEq1:  Iter= 14 NonCon=     1 RMS=2.10D-09 Max=4.40D-08 NDo=     1
 LinEq1:  Iter= 15 NonCon=     1 RMS=8.81D-10 Max=9.77D-09 NDo=     1
 LinEq1:  Iter= 16 NonCon=     1 RMS=1.10D-10 Max=1.44D-09 NDo=     1
 LinEq1:  Iter= 17 NonCon=     0 RMS=1.47D-11 Max=1.85D-10 NDo=     1
 Linear equations converged to 1.000D-10 1.000D-09 after    17 iterations.
 End of Minotr F.D. properties file   721 does not exist.
 End of Minotr F.D. properties file   722 does not exist.
 End of Minotr F.D. properties file   788 does not exist.
 Leave Link 1002 at Thu Jun 16 00:06:39 2022, MaxMem=  1342177280 cpu:              96.5 elap:              24.8
 (Enter /gpfs1/apps/software/Gaussian16/AVX/g16/l601.exe)
 Copying SCF densities to generalized density rwf, IOpCl= 0 IROHF=0.

 **********************************************************************

            Population analysis using the CI Density.

 **********************************************************************

 Orbital symmetries:
       Occupied  (A) (A) (A) (A) (A) (A) (A) (A) (A) (A) (A) (A)
                 (A) (A) (A) (A) (A) (A) (A) (A) (A)
       Virtual   (A) (A) (A) (A) (A) (A) (A) (A) (A) (A) (A) (A)
                 (A) (A) (A) (A) (A) (A) (A) (A) (A) (A) (A) (A)
                 (A) (A) (A) (A) (A) (A) (A) (A) (A) (A) (A) (A)
                 (A) (A) (A) (A) (A) (A) (A) (A) (A) (A) (A) (A)
                 (A) (A) (A) (A) (A) (A) (A) (A) (A) (A) (A) (A)
                 (A) (A) (A) (A) (A) (A) (A) (A) (A) (A) (A) (A)
                 (A) (A) (A) (A) (A) (A) (A) (A) (A) (A) (A) (A)
                 (A) (A) (A) (A) (A) (A) (A) (A) (A) (A)
 The electronic state is 1-A.
 Alpha  occ. eigenvalues --  -14.39728 -10.27091 -10.27090 -10.25832 -10.24797
 Alpha  occ. eigenvalues --  -10.24795  -0.97001  -0.82851  -0.78422  -0.64808
 Alpha  occ. eigenvalues --   -0.64578  -0.54342  -0.49324  -0.48193  -0.43918
 Alpha  occ. eigenvalues --   -0.41446  -0.41307  -0.37236  -0.29965  -0.27369
 Alpha  occ. eigenvalues --   -0.26764
 Alpha virt. eigenvalues --   -0.01873  -0.00522   0.10771   0.15442   0.15641
 Alpha virt. eigenvalues --    0.17065   0.19299   0.19423   0.24941   0.30516
 Alpha virt. eigenvalues --    0.33025   0.33085   0.46334   0.46829   0.53387
 Alpha virt. eigenvalues --    0.55102   0.59535   0.60482   0.61020   0.61168
 Alpha virt. eigenvalues --    0.61650   0.62027   0.66244   0.67625   0.68804
 Alpha virt. eigenvalues --    0.70858   0.82780   0.83483   0.85195   0.85200
 Alpha virt. eigenvalues --    0.87573   0.88411   0.93337   0.94068   0.98020
 Alpha virt. eigenvalues --    1.05709   1.07995   1.11955   1.17781   1.21979
 Alpha virt. eigenvalues --    1.25256   1.29377   1.37827   1.39884   1.40857
 Alpha virt. eigenvalues --    1.44723   1.47504   1.49011   1.70541   1.75657
 Alpha virt. eigenvalues --    1.79261   1.81892   1.90198   1.93120   1.97182
 Alpha virt. eigenvalues --    1.98022   2.00135   2.01617   2.09454   2.13657
 Alpha virt. eigenvalues --    2.14957   2.32068   2.33231   2.33521   2.38228
 Alpha virt. eigenvalues --    2.38552   2.41040   2.43081   2.45465   2.49594
 Alpha virt. eigenvalues --    2.50032   2.52377   2.54029   2.59908   2.62226
 Alpha virt. eigenvalues --    2.70960   2.74884   2.76813   2.86745   3.00510
 Alpha virt. eigenvalues --    3.05370   3.20848   3.25174   3.26306   3.33959
 Alpha virt. eigenvalues --    3.42387   3.54057   3.88853   4.11806   4.18007
 Alpha virt. eigenvalues --    4.23037   4.35610   4.46562   4.75859
     Molecular Orbital Coefficients:
                          17        18        19        20        21
                           O         O         O         O         O
     Eigenvalues --    -0.41307  -0.37236  -0.29965  -0.27369  -0.26764
   1 1   C  1S          0.00003  -0.00300   0.00000   0.00001  -0.02270
   2        2S         -0.00006  -0.00254  -0.00001  -0.00002   0.05497
   3        2PX         0.00008   0.21907   0.00001   0.00002  -0.06809
   4        2PY        -0.00016  -0.03247   0.00002   0.00006  -0.17536
   5        2PZ         0.23896  -0.00000  -0.11238  -0.29876  -0.00010
   6        3S         -0.00006   0.03618  -0.00000  -0.00002   0.06073
   7        3PX         0.00001   0.07503   0.00000  -0.00000   0.01945
   8        3PY        -0.00009  -0.00667   0.00001   0.00000   0.00655
   9        3PZ         0.13535  -0.00000  -0.08061  -0.20643  -0.00006
  10        4XX        -0.00000   0.00617  -0.00000  -0.00001   0.02212
  11        4YY         0.00001  -0.00172   0.00000   0.00001  -0.02188
  12        4ZZ         0.00000   0.00088   0.00000   0.00000  -0.00215
  13        4XY        -0.00000  -0.02148  -0.00000   0.00000  -0.01418
  14        4XZ        -0.01466  -0.00000   0.01368  -0.00059   0.00000
  15        4YZ         0.00144  -0.00000   0.01643  -0.01170  -0.00000
  16 2   C  1S         -0.00002   0.00195  -0.00000  -0.00001   0.02159
  17        2S          0.00005   0.00124   0.00001   0.00001  -0.04896
  18        2PX        -0.00011  -0.24078  -0.00001   0.00000   0.00637
  19        2PY         0.00015   0.05810  -0.00002  -0.00004   0.18015
  20        2PZ         0.18345  -0.00001   0.20854  -0.29231  -0.00005
  21        3S          0.00009  -0.03373   0.00001   0.00003  -0.11249
  22        3PX        -0.00003  -0.08567   0.00000   0.00001  -0.04863
  23        3PY         0.00003   0.03070  -0.00001  -0.00003   0.12139
  24        3PZ         0.10231  -0.00001   0.14725  -0.21506  -0.00004
  25        4XX         0.00001  -0.00629  -0.00000  -0.00000   0.00660
  26        4YY        -0.00001   0.00206   0.00000   0.00000  -0.00336
  27        4ZZ        -0.00000   0.00056   0.00000   0.00000  -0.00044
  28        4XY        -0.00000  -0.01761  -0.00000  -0.00000   0.00348
  29        4XZ        -0.00821  -0.00000  -0.01237   0.00085  -0.00000
  30        4YZ        -0.00636  -0.00000   0.00989   0.01176   0.00000
  31 3   C  1S         -0.00001  -0.00000   0.00000   0.00000  -0.00257
  32        2S          0.00002  -0.00000  -0.00000  -0.00000   0.01025
  33        2PX         0.00001   0.28769   0.00000  -0.00000   0.00001
  34        2PY        -0.00037   0.00002   0.00000   0.00001  -0.05906
  35        2PZ         0.17221  -0.00001   0.35211  -0.00001   0.00004
  36        3S          0.00002   0.00000   0.00000   0.00000  -0.06625
  37        3PX         0.00000   0.11530   0.00000   0.00000   0.00000
  38        3PY        -0.00013   0.00001  -0.00001   0.00001  -0.01409
  39        3PZ         0.09865  -0.00001   0.23952  -0.00001   0.00003
  40        4XX         0.00001   0.00000  -0.00000  -0.00000   0.00722
  41        4YY        -0.00002  -0.00000   0.00000   0.00000  -0.01182
  42        4ZZ         0.00000  -0.00000   0.00000   0.00000   0.00013
  43        4XY        -0.00000  -0.01088  -0.00000  -0.00000   0.00000
  44        4XZ         0.00000  -0.00000   0.00000  -0.01973  -0.00000
  45        4YZ        -0.00976   0.00000  -0.00943  -0.00000  -0.00000
  46 4   C  1S         -0.00002  -0.00195  -0.00000  -0.00000   0.02159
  47        2S          0.00004  -0.00124   0.00000   0.00001  -0.04896
  48        2PX         0.00006  -0.24078  -0.00000   0.00000  -0.00638
  49        2PY         0.00018  -0.05813  -0.00001  -0.00003   0.18014
  50        2PZ         0.18344  -0.00001   0.20855   0.29230   0.00009
  51        3S          0.00008   0.03373   0.00000   0.00004  -0.11248
  52        3PX         0.00000  -0.08567  -0.00001  -0.00000   0.04862
  53        3PY         0.00004  -0.03071  -0.00001  -0.00003   0.12139
  54        3PZ         0.10231  -0.00000   0.14726   0.21506   0.00006
  55        4XX         0.00001   0.00629  -0.00000  -0.00000   0.00660
  56        4YY        -0.00001  -0.00206  -0.00000   0.00000  -0.00336
  57        4ZZ        -0.00000  -0.00056   0.00000   0.00000  -0.00044
  58        4XY         0.00000  -0.01761  -0.00000   0.00000  -0.00348
  59        4XZ         0.00821  -0.00000   0.01237   0.00085   0.00000
  60        4YZ        -0.00636   0.00000   0.00989  -0.01176  -0.00000
  61 5   C  1S          0.00002   0.00300   0.00000   0.00000  -0.02270
  62        2S         -0.00006   0.00255  -0.00001  -0.00000   0.05497
  63        2PX        -0.00010   0.21907  -0.00001  -0.00001   0.06812
  64        2PY        -0.00018   0.03250   0.00002   0.00003  -0.17535
  65        2PZ         0.23895  -0.00001  -0.11236   0.29877   0.00005
  66        3S         -0.00006  -0.03617  -0.00001  -0.00001   0.06074
  67        3PX        -0.00001   0.07503   0.00000  -0.00000  -0.01944
  68        3PY        -0.00009   0.00667   0.00000  -0.00001   0.00655
  69        3PZ         0.13535  -0.00000  -0.08060   0.20644   0.00004
  70        4XX         0.00000  -0.00616  -0.00000  -0.00001   0.02212
  71        4YY         0.00001   0.00171   0.00000   0.00001  -0.02188
  72        4ZZ        -0.00000  -0.00088   0.00000  -0.00000  -0.00215
  73        4XY         0.00000  -0.02148  -0.00000  -0.00000   0.01419
  74        4XZ         0.01466  -0.00000  -0.01368  -0.00059  -0.00000
  75        4YZ         0.00144  -0.00000   0.01642   0.01170   0.00000
  76 6   N  1S         -0.00003  -0.00000  -0.00001  -0.00002   0.07380
  77        2S          0.00006   0.00000   0.00002   0.00004  -0.15544
  78        2PX         0.00001  -0.22288  -0.00001  -0.00000  -0.00003
  79        2PY        -0.00022  -0.00002  -0.00003  -0.00012   0.49543
  80        2PZ         0.30815   0.00000  -0.33742   0.00001  -0.00001
  81        3S          0.00006   0.00001   0.00004   0.00008  -0.28338
  82        3PX         0.00000  -0.10755  -0.00001  -0.00001  -0.00002
  83        3PY        -0.00014  -0.00001  -0.00002  -0.00008   0.36953
  84        3PZ         0.18421   0.00000  -0.23958   0.00001  -0.00000
  85        4XX         0.00001   0.00000   0.00000  -0.00000   0.00337
  86        4YY        -0.00002  -0.00000  -0.00000  -0.00001   0.02592
  87        4ZZ         0.00001   0.00000  -0.00000   0.00000  -0.00937
  88        4XY         0.00000  -0.01560  -0.00000   0.00000  -0.00000
  89        4XZ        -0.00000  -0.00000  -0.00000  -0.01905  -0.00001
  90        4YZ         0.02310   0.00000  -0.01784  -0.00000   0.00000
  91 7   H  1S          0.00006   0.15496  -0.00000  -0.00002   0.09295
  92        2S          0.00006   0.14981  -0.00000  -0.00003   0.10767
  93        3PX        -0.00000  -0.00284   0.00000   0.00000  -0.00257
  94        3PY        -0.00000   0.00279   0.00000   0.00000  -0.00176
  95        3PZ         0.00462   0.00000  -0.00257  -0.00754  -0.00000
  96 8   H  1S          0.00001  -0.14363  -0.00001  -0.00001   0.05580
  97        2S          0.00000  -0.13992  -0.00001  -0.00002   0.09320
  98        3PX        -0.00000   0.00173   0.00000   0.00000  -0.00190
  99        3PY         0.00000   0.00397  -0.00000  -0.00000   0.00172
 100        3PZ         0.00381  -0.00000   0.00510  -0.00754  -0.00000
 101 9   H  1S         -0.00024   0.00001   0.00001   0.00001  -0.05908
 102        2S         -0.00022   0.00001   0.00001   0.00001  -0.07261
 103        3PX         0.00000   0.00486  -0.00000  -0.00000   0.00000
 104        3PY         0.00001   0.00000  -0.00000  -0.00000   0.00013
 105        3PZ         0.00352  -0.00000   0.00878  -0.00000   0.00000
 106 10  H  1S          0.00004   0.14362  -0.00000  -0.00001   0.05580
 107        2S          0.00003   0.13991  -0.00000  -0.00002   0.09320
 108        3PX         0.00000   0.00173  -0.00000  -0.00000   0.00190
 109        3PY         0.00000  -0.00397  -0.00000  -0.00000   0.00172
 110        3PZ         0.00381  -0.00000   0.00510   0.00754   0.00000
 111 11  H  1S          0.00007  -0.15496  -0.00001  -0.00003   0.09294
 112        2S          0.00008  -0.14981  -0.00001  -0.00003   0.10766
 113        3PX         0.00000  -0.00284  -0.00000  -0.00000   0.00257
 114        3PY        -0.00000  -0.00279   0.00000  -0.00000  -0.00176
 115        3PZ         0.00462  -0.00000  -0.00257   0.00754   0.00000
                          22        23        24        25        26
                           V         V         V         V         V
     Eigenvalues --    -0.01873  -0.00522   0.10771   0.15442   0.15641
   1 1   C  1S         -0.00000  -0.00000   0.03597  -0.02291   0.00002
   2        2S          0.00000   0.00000  -0.07583   0.02563  -0.00002
   3        2PX        -0.00000  -0.00000  -0.08408   0.18882  -0.00009
   4        2PY         0.00001  -0.00001   0.03944  -0.09857   0.00006
   5        2PZ        -0.20461   0.32438   0.00000  -0.00012  -0.28398
   6        3S          0.00001   0.00000  -0.37338   0.64729  -0.00041
   7        3PX         0.00000   0.00000  -0.22786   0.39105  -0.00018
   8        3PY         0.00001  -0.00002   0.13584  -0.32661   0.00019
   9        3PZ        -0.23474   0.41533   0.00000  -0.00021  -0.50145
  10        4XX        -0.00000   0.00000   0.00654   0.00046   0.00000
  11        4YY         0.00000   0.00000   0.00423   0.00167  -0.00000
  12        4ZZ        -0.00000  -0.00000  -0.00162  -0.00091  -0.00000
  13        4XY         0.00000   0.00000  -0.01741   0.01704  -0.00001
  14        4XZ        -0.01954  -0.00089  -0.00000  -0.00001  -0.01446
  15        4YZ        -0.02160  -0.01762   0.00000   0.00000   0.00665
  16 2   C  1S         -0.00000   0.00000   0.03961  -0.03690   0.00002
  17        2S          0.00000  -0.00000  -0.06518   0.04072  -0.00001
  18        2PX         0.00000   0.00000  -0.12825   0.20165  -0.00008
  19        2PY        -0.00000   0.00001  -0.09578   0.08519  -0.00005
  20        2PZ        -0.16381  -0.31081  -0.00000   0.00012   0.29671
  21        3S         -0.00001  -0.00001  -0.61535   0.87306  -0.00038
  22        3PX         0.00001   0.00001  -0.30550   0.46137  -0.00014
  23        3PY         0.00001   0.00001  -0.16082   0.33181  -0.00019
  24        3PZ        -0.23082  -0.42021  -0.00001   0.00023   0.54309
  25        4XX         0.00000   0.00000   0.01909  -0.00258   0.00000
  26        4YY        -0.00000   0.00000  -0.01022  -0.00085  -0.00000
  27        4ZZ         0.00000  -0.00000  -0.00140  -0.00109   0.00000
  28        4XY         0.00000   0.00000   0.01943  -0.01579   0.00001
  29        4XZ        -0.01625   0.00031   0.00000   0.00001   0.01525
  30        4YZ         0.02348  -0.01803  -0.00000   0.00000   0.00852
  31 3   C  1S          0.00000  -0.00000   0.04830   0.00001  -0.00001
  32        2S         -0.00000   0.00000  -0.08198  -0.00001   0.00001
  33        2PX        -0.00000   0.00000   0.00001   0.02791  -0.00001
  34        2PY        -0.00001  -0.00000  -0.18249  -0.00002   0.00003
  35        2PZ         0.37359  -0.00003  -0.00001  -0.00012  -0.28581
  36        3S          0.00002   0.00001  -0.70440  -0.00022   0.00024
  37        3PX        -0.00001   0.00000   0.00002  -0.19674   0.00007
  38        3PY        -0.00003  -0.00000  -0.44561  -0.00007   0.00004
  39        3PZ         0.49337  -0.00004  -0.00001  -0.00022  -0.54069
  40        4XX         0.00000   0.00000  -0.01935  -0.00000  -0.00000
  41        4YY         0.00000  -0.00000   0.03114   0.00000   0.00000
  42        4ZZ        -0.00000  -0.00000  -0.00201   0.00000  -0.00000
  43        4XY         0.00000   0.00000  -0.00000   0.01293  -0.00000
  44        4XZ        -0.00000  -0.03156  -0.00000   0.00000   0.00000
  45        4YZ         0.00958  -0.00000   0.00000  -0.00001  -0.01587
  46 4   C  1S         -0.00000  -0.00000   0.03961   0.03690  -0.00002
  47        2S          0.00001   0.00001  -0.06518  -0.04073   0.00003
  48        2PX         0.00000   0.00000   0.12825   0.20168  -0.00010
  49        2PY        -0.00001  -0.00000  -0.09577  -0.08516   0.00001
  50        2PZ        -0.16376   0.31084   0.00000   0.00012   0.29670
  51        3S         -0.00001  -0.00001  -0.61534  -0.87304   0.00036
  52        3PX        -0.00003  -0.00001   0.30550   0.46151  -0.00030
  53        3PY        -0.00001   0.00001  -0.16079  -0.33172   0.00008
  54        3PZ        -0.23075   0.42025  -0.00000   0.00020   0.54308
  55        4XX         0.00000   0.00000   0.01909   0.00258  -0.00000
  56        4YY        -0.00000  -0.00000  -0.01022   0.00085  -0.00000
  57        4ZZ         0.00000   0.00000  -0.00140   0.00109  -0.00000
  58        4XY        -0.00000   0.00000  -0.01943  -0.01579   0.00001
  59        4XZ         0.01625   0.00030   0.00000  -0.00001  -0.01525
  60        4YZ         0.02348   0.01803  -0.00000   0.00000   0.00852
[...]
  88        4XY        -0.00000   0.00000   0.00110
  89        4XZ         0.00000   0.00000   0.00000   0.00103
  90        4YZ         0.00000   0.00000   0.00000   0.00000   0.00093
  91 7   H  1S         -0.00001   0.00000   0.00000  -0.00000   0.00000
  92        2S         -0.00034   0.00020   0.00002  -0.00000   0.00000
  93        3PX        -0.00000  -0.00000   0.00000   0.00000   0.00000
  94        3PY         0.00000  -0.00000  -0.00000  -0.00000  -0.00000
  95        3PZ        -0.00000   0.00000  -0.00000   0.00000  -0.00000
  96 8   H  1S         -0.00000   0.00000  -0.00000   0.00000  -0.00000
  97        2S         -0.00003   0.00001  -0.00001   0.00000  -0.00000
  98        3PX        -0.00000   0.00000  -0.00000   0.00000  -0.00000
  99        3PY         0.00000  -0.00000   0.00000   0.00000   0.00000
 100        3PZ        -0.00000  -0.00000   0.00000   0.00000  -0.00000
 101 9   H  1S          0.00000   0.00000   0.00000  -0.00000   0.00000
 102        2S          0.00001   0.00000   0.00000  -0.00000   0.00000
 103        3PX         0.00000  -0.00000  -0.00000   0.00000  -0.00000
 104        3PY        -0.00000   0.00000   0.00000  -0.00000   0.00000
 105        3PZ         0.00000   0.00000   0.00000   0.00000   0.00000
 106 10  H  1S         -0.00000   0.00000  -0.00000  -0.00000  -0.00000
 107        2S         -0.00003   0.00001  -0.00001  -0.00000  -0.00000
 108        3PX        -0.00000   0.00000  -0.00000   0.00000  -0.00000
 109        3PY         0.00000  -0.00000   0.00000   0.00000   0.00000
 110        3PZ        -0.00000   0.00000   0.00000   0.00000  -0.00000
 111 11  H  1S         -0.00001   0.00000   0.00000  -0.00000   0.00000
 112        2S         -0.00034   0.00020   0.00002  -0.00000   0.00000
 113        3PX        -0.00000  -0.00000   0.00000   0.00000   0.00000
 114        3PY         0.00000  -0.00000  -0.00000  -0.00000  -0.00000
 115        3PZ        -0.00000   0.00000  -0.00000   0.00000  -0.00000
                          91        92        93        94        95
  91 7   H  1S          0.21240
  92        2S          0.09248   0.10391
  93        3PX         0.00000   0.00000   0.00039
  94        3PY         0.00000   0.00000   0.00000   0.00022
  95        3PZ         0.00000   0.00000   0.00000   0.00000   0.00027
  96 8   H  1S         -0.00001  -0.00075   0.00000  -0.00000   0.00000
  97        2S         -0.00063  -0.00305  -0.00000  -0.00003   0.00000
  98        3PX        -0.00000  -0.00000  -0.00000  -0.00000   0.00000
  99        3PY        -0.00000  -0.00004   0.00000   0.00000   0.00000
 100        3PZ        -0.00000  -0.00000   0.00000   0.00000   0.00000
 101 9   H  1S         -0.00000  -0.00000  -0.00000   0.00000   0.00000
 102        2S         -0.00000  -0.00011  -0.00000   0.00000  -0.00000
 103        3PX         0.00000   0.00000  -0.00000  -0.00000  -0.00000
 104        3PY         0.00000  -0.00000   0.00000  -0.00000  -0.00000
 105        3PZ         0.00000   0.00000   0.00000  -0.00000  -0.00000
 106 10  H  1S          0.00000   0.00000  -0.00000  -0.00000   0.00000
 107        2S          0.00000   0.00001  -0.00000  -0.00000   0.00000
 108        3PX        -0.00000  -0.00000  -0.00000   0.00000  -0.00000
 109        3PY        -0.00000  -0.00000  -0.00000  -0.00000  -0.00000
 110        3PZ        -0.00000  -0.00000   0.00000  -0.00000  -0.00000
 111 11  H  1S         -0.00000  -0.00000   0.00000  -0.00000  -0.00000
 112        2S         -0.00000  -0.00013  -0.00000  -0.00000  -0.00000
 113        3PX         0.00000  -0.00000  -0.00000  -0.00000  -0.00000
 114        3PY         0.00000   0.00000   0.00000   0.00000   0.00000
 115        3PZ        -0.00000   0.00000  -0.00000  -0.00000  -0.00000
                          96        97        98        99       100
  96 8   H  1S          0.21353
  97        2S          0.10130   0.12289
  98        3PX         0.00000   0.00000   0.00042
  99        3PY         0.00000   0.00000   0.00000   0.00021
 100        3PZ         0.00000   0.00000   0.00000   0.00000   0.00023
 101 9   H  1S         -0.00001  -0.00059  -0.00000  -0.00000   0.00000
 102        2S         -0.00053  -0.00294  -0.00002  -0.00001  -0.00000
 103        3PX        -0.00000  -0.00003   0.00000   0.00000   0.00000
 104        3PY        -0.00000  -0.00001   0.00000   0.00000   0.00000
 105        3PZ         0.00000   0.00000  -0.00000   0.00000   0.00000
 106 10  H  1S         -0.00000  -0.00000   0.00000   0.00000   0.00000
 107        2S         -0.00000  -0.00014   0.00000   0.00000   0.00000
 108        3PX         0.00000   0.00000  -0.00000  -0.00000  -0.00000
 109        3PY        -0.00000  -0.00000   0.00000  -0.00000   0.00000
 110        3PZ        -0.00000  -0.00000   0.00000   0.00000   0.00000
 111 11  H  1S          0.00000   0.00000  -0.00000  -0.00000  -0.00000
 112        2S          0.00000   0.00001  -0.00000  -0.00000  -0.00000
 113        3PX        -0.00000  -0.00000  -0.00000  -0.00000   0.00000
 114        3PY        -0.00000  -0.00000   0.00000  -0.00000  -0.00000
 115        3PZ         0.00000   0.00000  -0.00000  -0.00000  -0.00000
                         101       102       103       104       105
 101 9   H  1S          0.21239
 102        2S          0.10649   0.13555
 103        3PX         0.00000   0.00000   0.00011
 104        3PY         0.00000   0.00000   0.00000   0.00048
 105        3PZ         0.00000   0.00000   0.00000   0.00000   0.00032
 106 10  H  1S         -0.00001  -0.00053  -0.00000  -0.00000   0.00000
 107        2S         -0.00059  -0.00294  -0.00003  -0.00001   0.00000
 108        3PX        -0.00000  -0.00002   0.00000   0.00000  -0.00000
 109        3PY        -0.00000  -0.00001   0.00000   0.00000   0.00000
 110        3PZ        -0.00000  -0.00000   0.00000   0.00000   0.00000
 111 11  H  1S         -0.00000  -0.00000   0.00000   0.00000   0.00000
 112        2S         -0.00000  -0.00011   0.00000  -0.00000   0.00000
 113        3PX        -0.00000  -0.00000  -0.00000   0.00000   0.00000
 114        3PY         0.00000   0.00000  -0.00000  -0.00000  -0.00000
 115        3PZ         0.00000   0.00000   0.00000  -0.00000  -0.00000
                         106       107       108       109       110
 106 10  H  1S          0.21353
 107        2S          0.10130   0.12289
 108        3PX         0.00000   0.00000   0.00042
 109        3PY         0.00000   0.00000   0.00000   0.00021
 110        3PZ         0.00000   0.00000   0.00000   0.00000   0.00023
 111 11  H  1S         -0.00001  -0.00063  -0.00000  -0.00000  -0.00000
 112        2S         -0.00075  -0.00305  -0.00000  -0.00004  -0.00000
 113        3PX         0.00000  -0.00000  -0.00000   0.00000   0.00000
 114        3PY        -0.00000  -0.00003  -0.00000   0.00000   0.00000
 115        3PZ        -0.00000  -0.00000   0.00000   0.00000   0.00000
                         111       112       113       114       115
 111 11  H  1S          0.21240
 112        2S          0.09248   0.10391
 113        3PX         0.00000   0.00000   0.00039
 114        3PY         0.00000   0.00000   0.00000   0.00022
 115        3PZ         0.00000   0.00000   0.00000   0.00000   0.00027
     Gross orbital populations:
                           1
   1 1   C  1S          1.99245
   2        2S          0.70183
   3        2PX         0.69123
   4        2PY         0.73389
   5        2PZ         0.61619
   6        3S          0.39663
   7        3PX         0.11769
   8        3PY         0.19221
   9        3PZ         0.43340
  10        4XX         0.01049
  11        4YY         0.00700
  12        4ZZ        -0.02132
  13        4XY         0.01942
  14        4XZ         0.00957
  15        4YZ         0.00890
  16 2   C  1S          1.99272
  17        2S          0.69343
  18        2PX         0.74589
  19        2PY         0.71662
  20        2PZ         0.57687
  21        3S          0.54710
  22        3PX         0.27417
  23        3PY         0.17603
  24        3PZ         0.44688
  25        4XX         0.00872
  26        4YY         0.00724
  27        4ZZ        -0.02051
  28        4XY         0.01000
  29        4XZ         0.00443
  30        4YZ         0.00812
  31 3   C  1S          1.99254
  32        2S          0.67337
  33        2PX         0.70647
  34        2PY         0.72005
  35        2PZ         0.63891
  36        3S          0.50374
  37        3PX         0.17631
  38        3PY         0.23065
  39        3PZ         0.52214
  40        4XX         0.00764
  41        4YY         0.00930
  42        4ZZ        -0.01953
  43        4XY         0.01029
  44        4XZ         0.00438
  45        4YZ         0.00268
  46 4   C  1S          1.99272
  47        2S          0.69344
  48        2PX         0.74590
  49        2PY         0.71663
  50        2PZ         0.57682
  51        3S          0.54710
  52        3PX         0.27417
  53        3PY         0.17604
  54        3PZ         0.44684
  55        4XX         0.00872
  56        4YY         0.00723
  57        4ZZ        -0.02051
  58        4XY         0.01000
  59        4XZ         0.00444
  60        4YZ         0.00812
  61 5   C  1S          1.99245
  62        2S          0.70182
  63        2PX         0.69121
  64        2PY         0.73387
  65        2PZ         0.61625
  66        3S          0.39664
  67        3PX         0.11769
  68        3PY         0.19221
  69        3PZ         0.43346
  70        4XX         0.01049
  71        4YY         0.00700
  72        4ZZ        -0.02132
  73        4XY         0.01942
  74        4XZ         0.00956
  75        4YZ         0.00890
  76 6   N  1S          1.99253
  77        2S          0.78881
  78        2PX         0.80653
  79        2PY         0.63857
  80        2PZ         0.96147
  81        3S          0.91972
  82        3PX         0.25767
  83        3PY         0.40365
  84        3PZ         0.63324
  85        4XX         0.01394
  86        4YY        -0.00412
  87        4ZZ        -0.02297
  88        4XY         0.01111
  89        4XZ         0.00874
  90        4YZ         0.00199
  91 7   H  1S          0.52117
  92        2S          0.28502
  93        3PX         0.00614
  94        3PY         0.00367
  95        3PZ         0.00337
  96 8   H  1S          0.52460
  97        2S          0.31380
  98        3PX         0.00672
  99        3PY         0.00327
 100        3PZ         0.00306
 101 9   H  1S          0.52527
 102        2S          0.33510
 103        3PX         0.00179
 104        3PY         0.00772
 105        3PZ         0.00412
 106 10  H  1S          0.52460
 107        2S          0.31379
 108        3PX         0.00672
 109        3PY         0.00327
 110        3PZ         0.00306
 111 11  H  1S          0.52117
 112        2S          0.28503
 113        3PX         0.00613
 114        3PY         0.00367
 115        3PZ         0.00338
          Condensed to atoms (all electrons):
               1          2          3          4          5          6
     1  C    4.794560   0.596168  -0.061392  -0.024796  -0.047876   0.302856
     2  C    0.596168   4.872357   0.464296  -0.013373  -0.024787  -0.028196
     3  C   -0.061392   0.464296   5.075723   0.464372  -0.061409  -0.037484
     4  C   -0.024796  -0.013373   0.464372   4.872259   0.596146  -0.028181
     5  C   -0.047876  -0.024787  -0.061409   0.596146   4.794702   0.302797
     6  N    0.302856  -0.028196  -0.037484  -0.028181   0.302797   6.971210
     7  H    0.385166  -0.028492   0.003094   0.000166   0.002397  -0.040363
     8  H   -0.042143   0.383471  -0.029473   0.004081   0.000202   0.004203
     9  H    0.004445  -0.037989   0.387591  -0.037989   0.004445   0.000175
    10  H    0.000202   0.004081  -0.029473   0.383468  -0.042143   0.004203
    11  H    0.002397   0.000166   0.003095  -0.028493   0.385171  -0.040362
               7          8          9         10         11
     1  C    0.385166  -0.042143   0.004445   0.000202   0.002397
     2  C   -0.028492   0.383471  -0.037989   0.004081   0.000166
     3  C    0.003094  -0.029473   0.387591  -0.029473   0.003095
     4  C    0.000166   0.004081  -0.037989   0.383468  -0.028493
     5  C    0.002397   0.000202   0.004445  -0.042143   0.385171
     6  N   -0.040363   0.004203   0.000175   0.004203  -0.040362
     7  H    0.502147  -0.004511  -0.000112   0.000009  -0.000134
     8  H   -0.004511   0.539886  -0.004141  -0.000142   0.000009
     9  H   -0.000112  -0.004141   0.561816  -0.004142  -0.000112
    10  H    0.000009  -0.000142  -0.004142   0.539884  -0.004511
    11  H   -0.000134   0.000009  -0.000112  -0.004511   0.502150
 Mulliken charges:
               1
     1  C    0.090413
     2  C   -0.187702
     3  C   -0.178939
     4  C   -0.187661
     5  C    0.090355
     6  N   -0.410858
     7  H    0.180633
     8  H    0.148558
     9  H    0.126014
    10  H    0.148564
    11  H    0.180624
 Sum of Mulliken charges =  -0.00000
 Mulliken charges with hydrogens summed into heavy atoms:
               1
     1  C    0.271046
     2  C   -0.039144
     3  C   -0.052925
     4  C   -0.039097
     5  C    0.270979
     6  N   -0.410858
 Electronic spatial extent (au):  <R**2>=            434.4868
 Charge=             -0.0000 electrons
 Dipole moment (field-independent basis, Debye):
    X=              0.0001    Y=             -0.6147    Z=              0.0001  Tot=              0.6147
 Quadrupole moment (field-independent basis, Debye-Ang):
   XX=            -27.3016   YY=            -32.1087   ZZ=            -38.6903
   XY=             -0.0006   XZ=              0.0000   YZ=              0.0002
 Traceless Quadrupole moment (field-independent basis, Debye-Ang):
   XX=              5.3986   YY=              0.5915   ZZ=             -5.9901
   XY=             -0.0006   XZ=              0.0000   YZ=              0.0002
 Octapole moment (field-independent basis, Debye-Ang**2):
  XXX=              0.0002  YYY=             -0.7395  ZZZ=             -0.0001  XYY=              0.0003
  XXY=             -4.2583  XXZ=              0.0002  XZZ=              0.0001  YZZ=             -1.9692
  YYZ=              0.0002  XYZ=             -0.0001
 Hexadecapole moment (field-independent basis, Debye-Ang**3):
 XXXX=           -247.7388 YYYY=           -241.9950 ZZZZ=            -39.7089 XXXY=             -0.0021
 XXXZ=              0.0003 YYYX=             -0.0009 YYYZ=             -0.0020 ZZZX=              0.0003
 ZZZY=             -0.0031 XXYY=            -73.1737 XXZZ=            -61.3818 YYZZ=            -54.2806
 XXYZ=             -0.0004 YYXZ=              0.0001 ZZXY=             -0.0005
 N-N= 2.051762428764D+02 E-N=-9.855468618580D+02  KE= 2.456626717134D+02
 Orbital energies and kinetic energies (alpha):
                                 1                 2
  17         O                -0.406677          1.058497
  18         O                -0.377708          1.401752
  19         O                -0.285665          1.255533
  20         O                -0.279778          1.121825
  21         O                -0.238476          1.840226
  22         V                -0.021576          1.531005
  23         V                -0.004173          1.354708
  24         V                 0.113505          0.953837
  25         V                 0.150897          1.738633
  26         V                 0.151709          0.961278
 Total kinetic energy from orbitals= 2.456375373422D+02
 No NMR shielding tensors so no spin-rotation constants.
 Leave Link  601 at Thu Jun 16 00:14:35 2022, MaxMem=  1342177280 cpu:               0.5 elap:               0.1
 (Enter /gpfs1/apps/software/Gaussian16/AVX/g16/l9999.exe)
 Electronic transition elements 
                 1             2             3             4             5 
      1  -0.247837D+03 -0.247819D+03 -0.247778D+03 -0.247741D+03 -0.247701D+03
      2  -0.787254D-05  0.762314D-05 -0.351222D+00 -0.289716D-03  0.215742D+01
      3  -0.151170D-04 -0.108111D-04 -0.221454D-04  0.893917D-01 -0.409078D-03
      4   0.194931D+00 -0.475827D-04  0.000000D+00  0.174542D-05 -0.805860D-05
      5   0.000000D+00 -0.118905D-05  0.825098D-02  0.173899D-04 -0.212352D+00
      6   0.118936D-05  0.000000D+00  0.110142D-05  0.232647D-01  0.453555D-04
      7  -0.484693D-02  0.638326D-05 -0.103717D-05  0.000000D+00  0.000000D+00
      8   0.739780D+00 -0.168756D-03 -0.629027D-05  0.441490D-05 -0.110565D-04
      9  -0.511646D-05  0.289032D-01  0.166362D-05  0.494622D-05 -0.133033D-04
     10  -0.921615D-05 -0.118709D-04 -0.676259D-01  0.740045D-05  0.362928D-01
     11  -0.100970D-05  0.258471D-05 -0.139932D-05  0.250567D+00 -0.134821D-04
     12  -0.373310D-05 -0.578383D-05  0.000000D+00 -0.188003D+00  0.215353D-04
     13   0.103285D-05  0.113035D-05  0.324654D-05 -0.173806D-01  0.000000D+00
     14   0.235996D-05  0.215116D-05 -0.229175D-01 -0.191069D-04  0.741132D-02
     15   0.125694D-05 -0.185908D-01 -0.132198D-05 -0.452162D-05 -0.195409D-05
     16   0.242427D-01 -0.234453D-04 -0.129785D-05 -0.169124D-05  0.000000D+00
                 6             7             8             9            10 
      1  -0.247699D+03 -0.247698D+03 -0.247678D+03 -0.247676D+03 -0.247667D+03
      2  -0.467534D-03  0.406010D-04 -0.106911D-04  0.625633D-04  0.428521D-04
      3  -0.197282D+01  0.255730D-03  0.253957D-04  0.803034D+00  0.000000D+00
      4  -0.489716D-04 -0.377105D-04 -0.156547D+00  0.283202D-04  0.540555D-01
      5   0.471748D-04 -0.477649D-05  0.230012D-05 -0.657103D-05 -0.107886D-04
      6   0.190772D+00 -0.280034D-04 -0.535233D-05 -0.796856D-01  0.000000D+00
      7   0.474906D-05  0.858105D-05  0.415390D-01 -0.482390D-05  0.139678D-01
      8   0.000000D+00 -0.144679D-03  0.533594D-01  0.343435D-04  0.166813D+01
      9  -0.548837D-04 -0.418697D+00  0.624995D-04  0.197973D-05  0.456460D-05
     10  -0.612993D-05 -0.468768D-04 -0.221942D-05 -0.182429D-04  0.222401D-05
     11  -0.384943D+00  0.582602D-04  0.143242D-04 -0.595586D+00  0.260104D-04
     12   0.307164D+00 -0.484876D-04 -0.107313D-04  0.148442D+00 -0.811254D-05
     13   0.358646D-01 -0.893596D-05  0.375025D-05  0.546694D-01  0.128585D-04
     14   0.145474D-04  0.120635D-04  0.602285D-05  0.527566D-04  0.594349D-05
     15   0.104261D-05  0.230704D-01 -0.161807D-05  0.116300D-05  0.267189D-05
     16   0.674907D-05 -0.261945D-04  0.622168D-02  0.102945D-04  0.221861D+00
 Unable to Open any file for archive entry.
 1\1\GINC-KENNEDY56\FOpt\RPBE1PBE TDA-FC\6-31G(d,p)\C5H5N1\OSL\16-Jun-2
 022\0\\#p Opt TDA=(Singlet, nstates=10, root=1) PBE1PBE/6-31G(d,p) SCR
 F=(Solvent=Toluene) EmpiricalDispersion=(GD3BJ) Symmetry=(Tight) Popul
 ation=(Regular) Density=(Current) 6D 10F GFInput\\Pyridine_Excited_Sta
 tes_TDA_Optimised_S_1__PBE1PBE__GD3BJ__Toluene_6_31G_d_p_\\0,1\C,1.222
 3147897,-0.7156580006,-0.0000217628\C,1.2237043434,0.6593172011,0.0000
 04902\C,0.000030961,1.3865610221,0.0000217717\C,-1.2236513896,0.659382
 7652,0.0000179624\C,-1.2223651626,-0.715599478,-0.000022718\N,-0.00002
 62327,-1.2894606233,-0.0000487128\H,2.1059968074,-1.3412992714,-0.0000
 133657\H,2.1890935976,1.156794794,0.0000294029\H,0.000053654,2.4684130
 872,0.0000553562\H,-2.1890125259,1.156919146,0.0000445769\H,-2.1060788
 423,-1.3411906423,-0.0000274129\\Version=ES64L-G16RevC.01\State=1-A\HF
 =-247.9883615\RMSD=2.230e-09\RMSF=3.908e-05\Dipole=0.0000425,-0.241861
 3,0.0000208\Quadrupole=4.0137006,0.4397583,-4.4534589,-0.0004294,0.000
 0141,0.0001143\PG=C01 [X(C5H5N1)]\\@
 The archive entry for this job was punched.


 We find comfort among those who agree with us -- growth among those who don't.
 -- Frank A. Clark
 Job cpu time:       0 days  0 hours 38 minutes 14.3 seconds.
 Elapsed time:       0 days  0 hours  9 minutes 42.7 seconds.
 File lengths (MBytes):  RWF=    196 Int=      0 D2E=      0 Chk=      8 Scr=      2
 Normal termination of Gaussian 16 at Thu Jun 16 00:14:35 2022.
